LAMMPS (29 Sep 2021 - Update 1)
KOKKOS mode is enabled (../kokkos.cpp:97)
  will use up to 2 GPU(s) per node
  using 1 OpenMP thread(s) per MPI task
package kokkos
#################################
#two psrts have to be corrected
#Vacancy >> type : Fe Fe Fe Fe Fe Fe Fe Fe Fe
#Cu      >> type : Fe Fe Fe Fe Fe Fe Fe Fe Fe Cu
#################################
variable j loop 50
variable npt_temp      equal 0.1
label initialSettings
variable atmos        equal 1.01325                    # Atomic Mass

units       metal
atom_style  atomic
boundary p p p
if "$j ==1" then "read_data ./Fe_tensile.lat" else "read_data ./aftermm.lat"
read_data ./Fe_tensile.lat
Reading data file ...
  orthogonal box = (0.0000000 0.0000000 0.0000000) to (436.86457 57.106480 57.106480)
  16 by 2 by 4 MPI processor grid
  reading atoms ...
  120800 atoms
  read_data CPU = 0.339 seconds

#timestep    0.01
#timestep 0.1

pair_style  eam/alloy
pair_coeff  * * ./FeCuNi.eam.alloy Fe Fe Fe Fe Fe Fe Fe Fe Fe
#pair_coeff  * * ./new_potential/FeCuNi.eam.alloy Fe Fe Fe Fe Cu
#mass        *4 ${mass}
#pair_style  aenet
#pair_coeff  * * v03 Fe 10sw-10sw.nn Fe Fe Fe Fe Fe
#pair_coeff  * * ./new_potential/FeCuNi.eam.alloy Fe Fe Fe Fe Cu
#mass        *4 ${mass}
mass        * 55.845
#mass        5 58.454 correct value!!!

#group naming
group source type 2
800 atoms in group source
group detector type 3
800 atoms in group detector
group edge type 5
0 atoms in group edge
group edge_buf type 7
0 atoms in group edge_buf
group buffer type 7 8 9
0 atoms in group buffer
#group longage type 9

variable s equal xcm(source,x)
variable d equal xcm(detector,x)
variable g equal xcm(edge,x)
variable t equal temp
variable p equal press
variable v equal vol
variable e equal etotal
variable i equal time
variable FIG string iranai
variable f equal fcm(detector,x)
variable l equal vcm(detector,x)

##############################################
variable rescaleSteps equal 0
variable relaxationSteps equal 0
variable initialSteps equal ${rescaleSteps}+${relaxationSteps}
variable initialSteps equal 0+${relaxationSteps}
variable initialSteps equal 0+0
##############################################

#dump fuck all atom 1 strain.dump
#dump_modify fuck scale no

thermo 1
thermo_style custom time step lx pxx pxy pxz ly lz pyy pzz pyz etotal temp vol

#fix extra all print 1 "$i $s $d $g $l $f $t $v $e $p" file outp.txt

fix nve1 all nve
minimize 1.0e-30 1.0e-30 100000 100000
WARNING: Using 'neigh_modify every 1 delay 0 check yes' setting during minimization (../min.cpp:188)
Neighbor list info ...
  update every 1 steps, delay 0 steps, check yes
  max neighbors/atom: 2000, page size: 100000
  master list distance cutoff = 7.6
  ghost atom cutoff = 7.6
  binsize = 7.6, bins = 58 8 8
  1 neighbor lists, perpetual/occasional/extra = 1 0 0
  (1) pair eam/alloy/kk, perpetual
      attributes: full, newton off, kokkos_device
      pair build: full/bin/kk/device
      stencil: full/bin/3d
      bin: kk/device
WARNING: Fixes cannot yet send exchange data in Kokkos communication, switching to classic exchange/border communication (../comm_kokkos.cpp:581)
Per MPI rank memory allocation (min/avg/max) = 1.830 | 1.943 | 1.970 Mbytes
Time Step Lx Pxx Pxy Pxz Ly Lz Pyy Pzz Pyz TotEng Temp Volume 
           0        0    436.86457    118.80219 -5.4666901e-13 -4.9129035e-13     57.10648     57.10648    -812.7081    -812.7081 4.1806802e-13   -497261.36            0    1424680.9 
       0.001        1    436.86457     44.79424 -4.8130935e-13 -4.428366e-13     57.10648     57.10648   -904.84846   -904.84846 -2.2241935e-13   -497263.27            0    1424680.9 
       0.002        2    436.86457     23.52156 -2.6391113e-13 -6.7736626e-13     57.10648     57.10648   -922.24294   -922.24294 2.4694546e-13   -497263.32            0    1424680.9 
       0.003        3    436.86457    28.149253 -5.3562729e-13 -3.7922099e-13     57.10648     57.10648   -914.02867   -914.02867 -2.6308458e-13   -497263.39            0    1424680.9 
       0.004        4    436.86457    22.769747 -1.9330865e-13 -1.6949985e-14     57.10648     57.10648   -917.45532   -917.45532 -1.5546982e-12    -497263.4            0    1424680.9 
       0.005        5    436.86457    15.459859 -1.3514281e-14 -6.9967923e-13     57.10648     57.10648   -922.54335   -922.54335 -8.7553946e-13    -497263.4            0    1424680.9 
       0.006        6    436.86457    12.792724 -8.5097216e-13 -9.1144905e-13     57.10648     57.10648   -924.29598   -924.29598 -5.1927045e-13    -497263.4            0    1424680.9 
       0.007        7    436.86457    11.298523 -3.8142865e-13 1.762818e-14     57.10648     57.10648   -925.04899   -925.04899 -1.9862769e-12    -497263.4            0    1424680.9 
       0.008        8    436.86457    10.158465 5.9180412e-13 7.4025135e-13     57.10648     57.10648   -925.72096   -925.72096 -1.2087469e-12    -497263.4            0    1424680.9 
       0.009        9    436.86457    8.7822335 -5.6983664e-13 1.1540804e-12     57.10648     57.10648   -926.61722   -926.61722 4.6843697e-13    -497263.4            0    1424680.9 
        0.01       10    436.86457    7.9756887 9.8306566e-13 -5.2182475e-13     57.10648     57.10648   -927.10962   -927.10962 2.492651e-13    -497263.4            0    1424680.9 
       0.011       11    436.86457    7.3895153 -3.4549543e-13 -4.8264655e-14     57.10648     57.10648   -927.43503   -927.43503 2.1054135e-13    -497263.4            0    1424680.9 
       0.012       12    436.86457    6.8833877 1.2601447e-12 5.4085959e-13     57.10648     57.10648    -927.7324    -927.7324 -5.1904298e-13    -497263.4            0    1424680.9 
       0.013       13    436.86457    6.3274472 1.2293993e-12 1.4767147e-13     57.10648     57.10648   -928.08443   -928.08443 -3.9778452e-13    -497263.4            0    1424680.9 
       0.014       14    436.86457    5.9317412 5.8668146e-13 -9.5358711e-13     57.10648     57.10648   -928.32489   -928.32489 5.448621e-13    -497263.4            0    1424680.9 
       0.015       15    436.86457    5.6267772 8.3967608e-13 -3.199992e-13     57.10648     57.10648   -928.49523   -928.49523 -3.2243995e-13    -497263.4            0    1424680.9 
       0.016       16    436.86457    5.3396062 7.783909e-13 -2.1683377e-13     57.10648     57.10648   -928.66612   -928.66612 1.0046286e-13    -497263.4            0    1424680.9 
       0.017       17    436.86457    5.0405437 -4.2090283e-13 -1.8549464e-13     57.10648     57.10648   -928.85271   -928.85271 -2.1096365e-13    -497263.4            0    1424680.9 
       0.018       18    436.86457    4.8076098 6.1464317e-13 -8.3273891e-14     57.10648     57.10648   -928.99267   -928.99267 -8.6610845e-13    -497263.4            0    1424680.9 
       0.019       19    436.86457    4.6186846 5.3181006e-13 -5.3281783e-13     57.10648     57.10648   -929.10002   -929.10002 8.3294043e-14    -497263.4            0    1424680.9 
        0.02       20    436.86457     4.433151 1.6631281e-13 2.5256457e-14     57.10648     57.10648   -929.21062   -929.21062 2.3543966e-13    -497263.4            0    1424680.9 
       0.021       21    436.86457    4.2464509 -1.8222167e-13 -1.3019584e-12     57.10648     57.10648   -929.32623   -929.32623 6.964038e-14    -497263.4            0    1424680.9 
       0.022       22    436.86457    4.0922428 -3.789714e-13 1.8121193e-13     57.10648     57.10648   -929.41835   -929.41835 2.7338773e-12    -497263.4            0    1424680.9 
       0.023       23    436.86457    3.9634842 2.955123e-13 -1.4426147e-11     57.10648     57.10648   -929.49207   -929.49207 1.2047913e-11    -497263.4            0    1424680.9 
       0.024       24    436.86457    3.8332517 4.2255736e-12 -1.3829214e-10     57.10648     57.10648   -929.57003   -929.57003 1.018008e-10    -497263.4            0    1424680.9 
       0.025       25    436.86457    3.7072696 5.6871534e-11 -9.1680989e-10     57.10648     57.10648   -929.64752   -929.64752 6.1596318e-10    -497263.4            0    1424680.9 
       0.026       26    436.86457    3.6109442 4.5594739e-10 -4.6819871e-09     57.10648     57.10648   -929.70499   -929.70499 2.7971891e-09    -497263.4            0    1424680.9 
       0.027       27    436.86457    3.5365992 5.0719732e-10 -2.8666372e-09     57.10648     57.10648   -929.74817   -929.74817 1.1546301e-09    -497263.4            0    1424680.9 
       0.028       28    436.86457    3.4546701 2.3194115e-10 -3.5662585e-10     57.10648     57.10648   -929.79599   -929.79599 -4.7580133e-10    -497263.4            0    1424680.9 
       0.029       29    436.86457     3.357428 3.5043999e-11 -3.1686008e-10     57.10648     57.10648   -929.85514   -929.85514 -1.4856762e-09    -497263.4            0    1424680.9 
        0.03       30    436.86457    3.2782915 -6.8537596e-10 -1.7537661e-09     57.10648     57.10648   -929.90329   -929.90329 -5.2268461e-09    -497263.4            0    1424680.9 
       0.031       31    436.86457    3.2171368 -9.7953552e-10 -1.9784664e-09     57.10648     57.10648   -929.93941   -929.93941 -5.8432663e-09    -497263.4            0    1424680.9 
       0.032       32    436.86457    3.1532912 -1.2072863e-10 -2.5238113e-10     57.10648     57.10648   -929.97642   -929.97642 -1.2833129e-09    -497263.4            0    1424680.9 
       0.033       33    436.86457    3.0833514 5.196234e-11 -1.937659e-10     57.10648     57.10648   -930.01809   -930.01809 -1.0472692e-09    -497263.4            0    1424680.9 
       0.034       34    436.86457    3.0189506 2.9249609e-11 -9.1864321e-10     57.10648     57.10648   -930.05736   -930.05736 -2.7671109e-09    -497263.4            0    1424680.9 
       0.035       35    436.86457     2.968381 -3.6175642e-11 -6.8628858e-10     57.10648     57.10648   -930.08787   -930.08787 -2.3951373e-09    -497263.4            0    1424680.9 
       0.036       36    436.86457    2.9112357 -1.6160333e-12 -1.7559117e-10     57.10648     57.10648   -930.12141   -930.12141 -1.0243971e-09    -497263.4            0    1424680.9 
       0.037       37    436.86457    2.8585597 3.3147223e-11 -4.6370582e-10     57.10648     57.10648    -930.1522    -930.1522 -1.3445154e-09    -497263.4            0    1424680.9 
       0.038       38    436.86457    2.8101464 1.3116107e-10 -1.044708e-09     57.10648     57.10648   -930.18134   -930.18134 -2.4146697e-09    -497263.4            0    1424680.9 
       0.039       39    436.86457    2.7632484 1.1684543e-10 -2.6182318e-10     57.10648     57.10648   -930.20987   -930.20987 -1.0217062e-09    -497263.4            0    1424680.9 
        0.04       40    436.86457    2.7139139 5.9617449e-11 -1.2479744e-10     57.10648     57.10648   -930.23938   -930.23938 -5.8162773e-10    -497263.4            0    1424680.9 
       0.041       41    436.86457     2.671053  9.06032e-12 -6.0749854e-10     57.10648     57.10648    -930.2644    -930.2644 -6.9047602e-10    -497263.4            0    1424680.9 
       0.042       42    436.86457    2.6352177 1.4352728e-11 -5.6398255e-10     57.10648     57.10648   -930.28552   -930.28552 -4.6526079e-10    -497263.4            0    1424680.9 
       0.043       43    436.86457    2.5908684 2.4094587e-11 -1.8574955e-10     57.10648     57.10648   -930.31227   -930.31227 -1.3556288e-10    -497263.4            0    1424680.9 
       0.044       44    436.86457    2.5482822 8.799266e-13 -3.3308993e-10     57.10648     57.10648   -930.33808   -930.33808 1.2000215e-10    -497263.4            0    1424680.9 
       0.045       45    436.86457    2.5132708 -4.187709e-11 -6.5916768e-10     57.10648     57.10648   -930.35882   -930.35882 4.3369294e-10    -497263.4            0    1424680.9 
       0.046       46    436.86457    2.4799173 -2.8828594e-11 -2.5458318e-10     57.10648     57.10648   -930.37832   -930.37832 1.3250036e-10    -497263.4            0    1424680.9 
       0.047       47    436.86457    2.4430967 -2.2421559e-11 -1.7388333e-10     57.10648     57.10648   -930.40019   -930.40019 -4.8512628e-11    -497263.4            0    1424680.9 
       0.048       48    436.86457    2.4077944 2.1307458e-11 -3.6304273e-10     57.10648     57.10648   -930.42156   -930.42156 -2.0899933e-10    -497263.4            0    1424680.9 
       0.049       49    436.86457     2.377697 9.5957934e-11 -2.8208092e-10     57.10648     57.10648    -930.4397    -930.4397 -2.232557e-10    -497263.4            0    1424680.9 
        0.05       50    436.86457    2.3446065 1.197557e-10 -1.4583627e-10     57.10648     57.10648   -930.45924   -930.45924 -1.6907858e-10    -497263.4            0    1424680.9 
       0.051       51    436.86457    2.3145219 1.7481656e-10 -2.0104679e-10     57.10648     57.10648   -930.47689   -930.47689 -1.6610406e-10    -497263.4            0    1424680.9 
       0.052       52    436.86457    2.2869715 1.960763e-10 -1.9936355e-10     57.10648     57.10648   -930.49336   -930.49336 -9.562194e-11    -497263.4            0    1424680.9 
       0.053       53    436.86457    2.2567144 1.0990509e-10 -6.4088474e-11     57.10648     57.10648   -930.51167   -930.51167 -4.9191473e-11    -497263.4            0    1424680.9 
       0.054       54    436.86457    2.2272945 7.4489527e-11 -7.4299906e-11     57.10648     57.10648   -930.52929   -930.52929 -1.1541894e-10    -497263.4            0    1424680.9 
       0.055       55    436.86457    2.2021918 4.7960615e-11 -8.4756743e-11     57.10648     57.10648   -930.54405   -930.54405 -1.1588801e-10    -497263.4            0    1424680.9 
       0.056       56    436.86457    2.1777741 4.1248864e-11 -2.9833096e-12     57.10648     57.10648   -930.55843   -930.55843 4.2302976e-12    -497263.4            0    1424680.9 
       0.057       57    436.86457    2.1497799 2.4118568e-11 2.878814e-11     57.10648     57.10648   -930.57523   -930.57523 2.7222212e-11    -497263.4            0    1424680.9 
       0.058       58    436.86457    2.1251305 -6.2125366e-12 3.6314232e-11     57.10648     57.10648   -930.59012   -930.59012 -1.459512e-12    -497263.4            0    1424680.9 
       0.059       59    436.86457     2.101925 2.6508475e-12 4.7441803e-11     57.10648     57.10648   -930.60396   -930.60396 3.4311923e-12    -497263.4            0    1424680.9 
        0.06       60    436.86457    2.0775172 -1.4335983e-11 4.5249865e-11     57.10648     57.10648    -930.6183    -930.6183 1.4496341e-11    -497263.4            0    1424680.9 
       0.061       61    436.86457    2.0553351 -9.1340433e-11 2.713055e-11     57.10648     57.10648   -930.63145   -930.63145 1.2955374e-11    -497263.4            0    1424680.9 
       0.062       62    436.86457    2.0334478 -6.062375e-11 3.5164471e-11     57.10648     57.10648   -930.64461   -930.64461 2.1011439e-11    -497263.4            0    1424680.9 
       0.063       63    436.86457    2.0102351 -1.2356508e-11 4.8822991e-11     57.10648     57.10648   -930.65861   -930.65861 2.6898828e-11    -497263.4            0    1424680.9 
       0.064       64    436.86457    1.9885825 -2.1052786e-11 5.1735665e-11     57.10648     57.10648   -930.67145   -930.67145 3.4503344e-11    -497263.4            0    1424680.9 
       0.065       65    436.86457    1.9696205 -7.7092389e-12 1.9453107e-11     57.10648     57.10648   -930.68261   -930.68261 4.5259392e-11    -497263.4            0    1424680.9 
       0.066       66    436.86457    1.9487555 1.2675184e-11 -5.8255142e-12     57.10648     57.10648     -930.695     -930.695 5.7844577e-11    -497263.4            0    1424680.9 
       0.067       67    436.86457    1.9272565 1.2114066e-11 -2.6972405e-11     57.10648     57.10648   -930.70796   -930.70796 7.9961365e-11    -497263.4            0    1424680.9 
       0.068       68    436.86457    1.9088428 7.6861683e-12 -4.5320298e-11     57.10648     57.10648   -930.71902   -930.71902 5.4296858e-11    -497263.4            0    1424680.9 
       0.069       69    436.86457    1.8893342 9.787085e-12 -3.7293013e-11     57.10648     57.10648   -930.73057   -930.73057 6.0615956e-12    -497263.4            0    1424680.9 
        0.07       70    436.86457    1.8704889 1.1155844e-11 -4.154706e-11     57.10648     57.10648   -930.74167   -930.74167 -2.5742146e-11    -497263.4            0    1424680.9 
       0.071       71    436.86457    1.8529034 2.0126059e-11 -4.0516736e-11     57.10648     57.10648   -930.75217   -930.75217 -3.7956976e-11    -497263.4            0    1424680.9 
       0.072       72    436.86457    1.8342105 2.6375157e-11 -1.4303114e-11     57.10648     57.10648   -930.76343   -930.76343 -3.6664657e-12    -497263.4            0    1424680.9 
       0.073       73    436.86457    1.8157021 4.1836523e-11 -2.7805504e-11     57.10648     57.10648   -930.77451   -930.77451 3.1806601e-11    -497263.4            0    1424680.9 
       0.074       74    436.86457    1.7992534 4.8116942e-11 -4.1132272e-11     57.10648     57.10648   -930.78422   -930.78422 5.0947574e-11    -497263.4            0    1424680.9 
       0.075       75    436.86457    1.7829804 2.3549672e-11 -2.3589382e-11     57.10648     57.10648   -930.79383   -930.79383 1.8965799e-11    -497263.4            0    1424680.9 
       0.076       76    436.86457    1.7650034 2.3491732e-11 -2.4706321e-11     57.10648     57.10648   -930.80459   -930.80459 -4.8419651e-12    -497263.4            0    1424680.9 
       0.077       77    436.86457    1.7487773 2.2244209e-11 -2.1103474e-11     57.10648     57.10648   -930.81436   -930.81436 -2.4325946e-12    -497263.4            0    1424680.9 
       0.078       78    436.86457    1.7328987 4.4020282e-12 -5.5512842e-12     57.10648     57.10648   -930.82384   -930.82384 1.5130813e-11    -497263.4            0    1424680.9 
       0.079       79    436.86457    1.7164717 1.7357196e-12 -9.8826039e-12     57.10648     57.10648   -930.83352   -930.83352 1.1770699e-11    -497263.4            0    1424680.9 
        0.08       80    436.86457    1.7015915 8.3092442e-13 -1.8125561e-11     57.10648     57.10648   -930.84234   -930.84234 -1.6745067e-11    -497263.4            0    1424680.9 
       0.081       81    436.86457     1.686096 -7.377405e-12 -7.1942746e-12     57.10648     57.10648   -930.85164   -930.85164 -3.3092793e-11    -497263.4            0    1424680.9 
       0.082       82    436.86457    1.6700414 -7.0346379e-12 -6.6462764e-12     57.10648     57.10648   -930.86129   -930.86129 -4.2110088e-11    -497263.4            0    1424680.9 
       0.083       83    436.86457    1.6553498 -6.5602428e-12 -9.3181165e-12     57.10648     57.10648   -930.87002   -930.87002 -6.9317713e-11    -497263.4            0    1424680.9 
       0.084       84    436.86457    1.6413724 -2.1288885e-11 4.6475127e-12     57.10648     57.10648   -930.87827   -930.87827 -6.0485348e-11    -497263.4            0    1424680.9 
       0.085       85    436.86457    1.6264601 -2.5948583e-11 4.9241117e-12     57.10648     57.10648   -930.88713   -930.88713 -6.0210273e-11    -497263.4            0    1424680.9 
       0.086       86    436.86457    1.6118859 -2.5517596e-11 -4.4285554e-12     57.10648     57.10648   -930.89589   -930.89589 -6.4515699e-11    -497263.4            0    1424680.9 
       0.087       87    436.86457    1.5982098 -2.6389412e-11 -7.4103732e-13     57.10648     57.10648   -930.90409   -930.90409 -3.7189304e-11    -497263.4            0    1424680.9 
       0.088       88    436.86457      1.58372 -2.4189043e-11 -4.2246088e-12     57.10648     57.10648   -930.91269   -930.91269 -3.2777252e-11    -497263.4            0    1424680.9 
       0.089       89    436.86457    1.5704486 -2.0803234e-11 -1.7807813e-11     57.10648     57.10648   -930.92053   -930.92053 -5.2082816e-11    -497263.4            0    1424680.9 
        0.09       90    436.86457    1.5573584 -2.1896035e-11 -1.6055889e-11     57.10648     57.10648   -930.92833   -930.92833 -4.593839e-11    -497263.4            0    1424680.9 
       0.091       91    436.86457    1.5430928 -2.2844067e-11 -1.6451025e-11     57.10648     57.10648    -930.9369    -930.9369 -3.8703011e-11    -497263.4            0    1424680.9 
       0.092       92    436.86457    1.5299802 -2.0235409e-11 -2.9805415e-11     57.10648     57.10648   -930.94474   -930.94474 -4.3809905e-11    -497263.4            0    1424680.9 
       0.093       93    436.86457    1.5173862 -1.5669175e-11 -2.2837344e-11     57.10648     57.10648   -930.95221   -930.95221 -1.4688641e-11    -497263.4            0    1424680.9 
       0.094       94    436.86457    1.5043389 -1.2995045e-11 -2.0623009e-11     57.10648     57.10648   -930.95992   -930.95992 6.2910957e-12    -497263.4            0    1424680.9 
       0.095       95    436.86457    1.4913851 -7.9987855e-12 -4.3895901e-11     57.10648     57.10648   -930.96766   -930.96766 2.0323579e-11    -497263.4            0    1424680.9 
       0.096       96    436.86457    1.4790341 -2.0318699e-12 -4.1892798e-11     57.10648     57.10648   -930.97508   -930.97508 2.1699917e-11    -497263.4            0    1424680.9 
       0.097       97    436.86457    1.4661637 3.5488585e-12 -3.4968139e-11     57.10648     57.10648   -930.98277   -930.98277 1.9835656e-11    -497263.4            0    1424680.9 
       0.098       98    436.86457    1.4539202 1.2880377e-11 -4.484859e-11     57.10648     57.10648   -930.99001   -930.99001 2.3290078e-11    -497263.4            0    1424680.9 
       0.099       99    436.86457    1.4424509 8.9968948e-12 -3.3034895e-11     57.10648     57.10648   -930.99681   -930.99681 2.3372751e-11    -497263.4            0    1424680.9 
         0.1      100    436.86457    1.4296621 6.2231054e-12 -1.9941054e-11     57.10648     57.10648   -931.00446   -931.00446 2.0414905e-11    -497263.4            0    1424680.9 
       0.101      101    436.86457     1.417455 1.1022477e-11 -2.152625e-11     57.10648     57.10648   -931.01178   -931.01178 1.7996161e-11    -497263.4            0    1424680.9 
       0.102      102    436.86457    1.4060436 7.8238683e-12 -1.863777e-11     57.10648     57.10648   -931.01858   -931.01858 1.2056185e-11    -497263.4            0    1424680.9 
       0.103      103    436.86457    1.3941443 8.695288e-13 -1.5507734e-11     57.10648     57.10648   -931.02562   -931.02562 2.1479556e-12    -497263.4            0    1424680.9 
       0.104      104    436.86457    1.3825997 8.4118691e-12 -1.772438e-11     57.10648     57.10648   -931.03248   -931.03248 -4.835626e-12    -497263.4            0    1424680.9 
       0.105      105    436.86457    1.3712134 1.2225653e-11 -9.9503278e-12     57.10648     57.10648    -931.0393    -931.0393 -5.3051224e-13    -497263.4            0    1424680.9 
       0.106      106    436.86457    1.3594523 1.0441474e-11 -4.9929307e-12     57.10648     57.10648   -931.04635   -931.04635 2.6659793e-12    -497263.4            0    1424680.9 
       0.107      107    436.86457    1.3480666 1.6665223e-11 -7.8371566e-12     57.10648     57.10648   -931.05312   -931.05312 -1.1392749e-12    -497263.4            0    1424680.9 
       0.108      108    436.86457    1.3374566 1.3021947e-11 -1.0005688e-11     57.10648     57.10648   -931.05939   -931.05939 6.7020205e-12    -497263.4            0    1424680.9 
       0.109      109    436.86457    1.3261243 4.5486374e-12 -9.1284922e-12     57.10648     57.10648   -931.06614   -931.06614 1.2062738e-11    -497263.4            0    1424680.9 
        0.11      110    436.86457    1.3147907 3.2658583e-12 -1.0679301e-11     57.10648     57.10648   -931.07294   -931.07294 3.5479425e-12    -497263.4            0    1424680.9 
       0.111      111    436.86457      1.30421 2.4377546e-12 -1.1165188e-11     57.10648     57.10648   -931.07927   -931.07927 -7.9018888e-12    -497263.4            0    1424680.9 
       0.112      112    436.86457    1.2930845 1.6534744e-12 -1.0902726e-11     57.10648     57.10648   -931.08587   -931.08587 -7.163837e-12    -497263.4            0    1424680.9 
       0.113      113    436.86457     1.282767 3.0848875e-12 -1.4690946e-11     57.10648     57.10648   -931.09198   -931.09198 -6.2781802e-12    -497263.4            0    1424680.9 
       0.114      114    436.86457     1.273409 5.1133868e-12 -1.26575e-11     57.10648     57.10648   -931.09756   -931.09756 -2.9701397e-12    -497263.4            0    1424680.9 
       0.115      115    436.86457    1.2653673 5.0890559e-12 -8.1510763e-12     57.10648     57.10648   -931.10239   -931.10239 -3.8537801e-13    -497263.4            0    1424680.9 
       0.116      116    436.86457    1.2606301 3.6966903e-12 -6.3111799e-12     57.10648     57.10648   -931.10522   -931.10522 -4.4649342e-13    -497263.4            0    1424680.9 
       0.117      117    436.86457    1.2584203 1.4042934e-13 -1.8925628e-12     57.10648     57.10648   -931.10652   -931.10652 4.7911633e-14    -497263.4            0    1424680.9 
       0.118      118    436.86457    1.2573398 -1.6075888e-12 8.4907109e-13     57.10648     57.10648   -931.10715   -931.10715 -9.9543116e-13    -497263.4            0    1424680.9 
       0.119      119    436.86457    1.2563427 -2.5294616e-12 -1.0190981e-13     57.10648     57.10648   -931.10775   -931.10775 -1.1602327e-12    -497263.4            0    1424680.9 
        0.12      120    436.86457    1.2537229 -3.0792695e-12 -1.6574428e-12     57.10648     57.10648   -931.10933   -931.10933 -5.3312586e-12    -497263.4            0    1424680.9 
       0.121      121    436.86457    1.2376454 -7.0998072e-12 -8.0282662e-12     57.10648     57.10648   -931.11895   -931.11895 -3.3939021e-11    -497263.4            0    1424680.9 
       0.122      122    436.86457    1.1187069 -3.4935768e-11 -8.7787186e-11     57.10648     57.10648   -931.18984   -931.18984 -3.5472982e-10    -497263.4            0    1424680.9 
       0.123      123    436.86457   0.56371238 -4.7339531e-10 2.7872522e-10     57.10648     57.10648   -931.52039   -931.52039 -9.1425552e-10    -497263.4            0    1424680.9 
       0.124      124    436.86457  0.083772726 -6.5018342e-10 9.7825398e-10     57.10648     57.10648   -931.80634   -931.80634 -3.4180051e-10    -497263.4            0    1424680.9 
       0.125      125    436.86457  0.014879842 -5.7441152e-10 1.0419622e-09     57.10648     57.10648   -931.84747   -931.84747 -3.6050195e-11    -497263.4            0    1424680.9 
       0.126      126    436.86457 0.0071086923 -5.1553385e-10 1.0388161e-09     57.10648     57.10648   -931.85214   -931.85214 -2.6642769e-12    -497263.4            0    1424680.9 
       0.127      127    436.86457 0.0045416639 -4.1619196e-10 1.0192692e-09     57.10648     57.10648   -931.85369   -931.85369 -2.9936493e-12    -497263.4            0    1424680.9 
       0.128      128    436.86457 0.0015522305 -2.3276168e-10 9.776088e-10     57.10648     57.10648   -931.85548   -931.85548 3.674335e-13    -497263.4            0    1424680.9 
       0.129      129    436.86457 0.00058695772 -1.650965e-10 9.5207926e-10     57.10648     57.10648   -931.85604   -931.85604 -4.1661875e-14    -497263.4            0    1424680.9 
        0.13      130    436.86457 0.00044008376 -1.5865646e-10 9.3453127e-10     57.10648     57.10648   -931.85612   -931.85612 -1.6459145e-13    -497263.4            0    1424680.9 
       0.131      131    436.86457 0.00026860251 -1.6067204e-10 8.8521227e-10     57.10648     57.10648   -931.85622   -931.85622 7.4778243e-13    -497263.4            0    1424680.9 
       0.132      132    436.86457 0.00012779022 -1.5629577e-10 8.2892051e-10     57.10648     57.10648    -931.8563    -931.8563 1.5415323e-13    -497263.4            0    1424680.9 
       0.133      133    436.86457 7.4314993e-05 -1.4332974e-10 7.9057906e-10     57.10648     57.10648   -931.85634   -931.85634 1.3831073e-13    -497263.4            0    1424680.9 
       0.134      134    436.86457 3.6805623e-05 -1.1547241e-10 7.2925333e-10     57.10648     57.10648   -931.85636   -931.85636 -3.1836032e-13    -497263.4            0    1424680.9 
       0.135      135    436.86457 3.0425332e-05 -9.2276831e-11 6.7968719e-10     57.10648     57.10648   -931.85637   -931.85637 -3.5096546e-13    -497263.4            0    1424680.9 
       0.136      136    436.86457 3.1018414e-05 -7.4446873e-11 6.3363436e-10     57.10648     57.10648   -931.85636   -931.85636 7.0198131e-13    -497263.4            0    1424680.9 
       0.137      137    436.86457 2.3132706e-05 -5.9697051e-11 5.8617295e-10     57.10648     57.10648   -931.85637   -931.85637 4.7603632e-13    -497263.4            0    1424680.9 
Loop time of 16.1461 on 128 procs for 137 steps with 120800 atoms

84.8% CPU use with 128 MPI tasks x 1 OpenMP threads

Minimization stats:
  Stopping criterion = energy tolerance
  Energy initial, next-to-last, final = 
     -497261.355337392  -497263.401315488  -497263.401315488
  Force two-norm initial, final = 7.1080974 4.2705295e-06
  Force max component initial, final = 0.19826945 4.6719327e-08
  Final line search alpha, max atom move = 1.0000000 4.6719327e-08
  Iterations, force evaluations = 137 274

MPI task timing breakdown:
Section |  min time  |  avg time  |  max time  |%varavg| %total
---------------------------------------------------------------
Pair    | 8.1382     | 8.9769     | 9.5984     |  10.4 | 55.60
Neigh   | 0          | 0          | 0          |   0.0 |  0.00
Comm    | 3.5508     | 3.7402     | 3.946      |   4.6 | 23.16
Output  | 0.51047    | 0.51177    | 0.51428    |   0.1 |  3.17
Modify  | 0          | 0          | 0          |   0.0 |  0.00
Other   |            | 2.917      |            |       | 18.07

Nlocal:        943.750 ave        1000 max         800 min
Histogram: 8 0 0 0 0 0 0 112 0 8
Nghost:        3824.00 ave        3940 max        3288 min
Histogram: 8 0 8 0 0 0 0 32 0 80
Neighs:         0.00000 ave           0 max           0 min
Histogram: 128 0 0 0 0 0 0 0 0 0
FullNghs:      157512.0 ave      168000 max      126100 min
Histogram: 8 0 0 0 0 0 8 104 0 8

Total # of neighbors = 20161600
Ave neighs/atom = 166.90066
Neighbor list builds = 0
Dangerous builds = 0
variable oshikko equal pxx
variable p0 equal ${oshikko}
variable p0 equal 2.31327055735946e-05
variable unko equal lx
variable lx0 equal ${unko}
variable lx0 equal 436.864572

variable current_time equal time

variable boxlen equal lx
variable boxwidth equal ly
variable pressure equal pxx
variable epsilon equal ln(lx/${lx0})
variable epsilon equal ln(lx/436.864572)
variable sigma equal abs(pxx-${p0})
variable sigma equal abs(pxx-2.31327055735946e-05)

# initial Settings end here #

#fix strain all deform 1000 x trate 0.0001
#fix strain1 all deform 1 x scale 1.0001
#run 1
#minimize 1.0e-30 1.0e-30 100000 100000
#unfix strain1
#fix strain2 all deform 1 x scale 1.0001
#run 1
#minimize 1.0e-30 1.0e-30 100000 100000
#unfix strain2
#fix strain1 all deform 1 x scale 1.0001
#run 1
#minimize 1.0e-30 1.0e-30 100000 100000
#quit


label		deformationLoop
#variable	i loop 25
if "$j == 1" then "jump SELF initialmm"
jump SELF initialmm
minimize 1.0e-30 1.0e-30 100000 100000
WARNING: Using 'neigh_modify every 1 delay 0 check yes' setting during minimization (../min.cpp:188)
Per MPI rank memory allocation (min/avg/max) = 1.855 | 1.972 | 1.999 Mbytes
Time Step Lx Pxx Pxy Pxz Ly Lz Pyy Pzz Pyz TotEng Temp Volume 
       0.137      137    436.86457 2.3132705e-05 -5.9876489e-11 5.8628468e-10     57.10648     57.10648   -931.85637   -931.85637 5.8225286e-13    -497263.4            0    1424680.9 
       0.138      138    436.86457 1.8136218e-05 -6.3756236e-11 5.783867e-10     57.10648     57.10648   -931.85637   -931.85637 4.5497058e-13    -497263.4            0    1424680.9 
       0.139      139    436.86457 1.1943747e-05 -6.9337704e-11 5.5989516e-10     57.10648     57.10648   -931.85638   -931.85638 6.7096402e-13    -497263.4            0    1424680.9 
        0.14      140    436.86457 1.2076317e-05 -7.4983963e-11 5.2162877e-10     57.10648     57.10648   -931.85638   -931.85638 1.0970193e-12    -497263.4            0    1424680.9 
       0.141      141    436.86457 1.7076877e-05 -7.704328e-11 4.8045674e-10     57.10648     57.10648   -931.85637   -931.85637 -8.3069831e-13    -497263.4            0    1424680.9 
Loop time of 0.64282 on 128 procs for 4 steps with 120800 atoms

83.0% CPU use with 128 MPI tasks x 1 OpenMP threads

Minimization stats:
  Stopping criterion = energy tolerance
  Energy initial, next-to-last, final = 
     -497263.401315488  -497263.401315488  -497263.401315488
  Force two-norm initial, final = 4.2705295e-06 1.9612555e-06
  Force max component initial, final = 4.6719327e-08 2.2208922e-08
  Final line search alpha, max atom move = 1.0000000 2.2208922e-08
  Iterations, force evaluations = 4 8

MPI task timing breakdown:
Section |  min time  |  avg time  |  max time  |%varavg| %total
---------------------------------------------------------------
Pair    | 0.25474    | 0.29672    | 0.36265    |   4.2 | 46.16
Neigh   | 0          | 0          | 0          |   0.0 |  0.00
Comm    | 0.18892    | 0.22429    | 0.25628    |   4.5 | 34.89
Output  | 0.010804   | 0.010945   | 0.011106   |   0.1 |  1.70
Modify  | 0          | 0          | 0          |   0.0 |  0.00
Other   |            | 0.1109     |            |       | 17.25

Nlocal:        943.750 ave        1007 max         790 min
Histogram: 8 0 0 0 0 0 3 109 0 8
Nghost:        3824.00 ave        3950 max        3276 min
Histogram: 8 0 8 0 0 0 0 32 0 80
Neighs:         0.00000 ave           0 max           0 min
Histogram: 128 0 0 0 0 0 0 0 0 0
FullNghs:      157512.0 ave      169176 max      124601 min
Histogram: 8 0 0 0 0 6 2 75 29 8

Total # of neighbors = 20161600
Ave neighs/atom = 166.90066
Neighbor list builds = 0
Dangerous builds = 0
print 		"${boxlen} ${boxwidth} ${pressure} ${sigma} ${epsilon} ${current_time} $t" append sstest.txt
436.864572 57.10648 1.70768770029079e-05 6.05582857068673e-06 0 0.141 0
print 		"${boxlen} ${boxwidth} ${pressure} ${sigma} ${epsilon} ${current_time} $t" append ssminimize.txt
436.864572 57.10648 1.70768770029079e-05 6.05582857068673e-06 0 0.141 0
write_data aftermm.lat
System init for write_data ...
jump SELF deform
variable 	expRate equal 1+0.0001*$j
variable 	expRate equal 1+0.0001*1
fix strain 	all deform 1 x scale ${expRate}
fix strain 	all deform 1 x scale 1.0001
run 		1
Per MPI rank memory allocation (min/avg/max) = 1.561 | 1.643 | 1.662 Mbytes
Time Step Lx Pxx Pxy Pxz Ly Lz Pyy Pzz Pyz TotEng Temp Volume 
           0      141    436.86457 1.7076877e-05 -7.6788825e-11 4.8063353e-10     57.10648     57.10648   -931.85637   -931.85637 -5.7161906e-13    -497263.4            0    1424680.9 
       0.001      142    436.90826 1.7074611e-05 -7.6842951e-11 4.8068212e-10     57.10648     57.10648    -931.7632    -931.7632 8.8437868e-13    -497263.4 2.1262843e-17    1424823.4 
Loop time of 0.0616072 on 128 procs for 1 steps with 120800 atoms

Performance: 1.402 ns/day, 17.113 hours/ns, 16.232 timesteps/s
87.5% CPU use with 128 MPI tasks x 1 OpenMP threads

MPI task timing breakdown:
Section |  min time  |  avg time  |  max time  |%varavg| %total
---------------------------------------------------------------
Pair    | 0.028964   | 0.032728   | 0.035854   |   0.9 | 53.12
Neigh   | 0          | 0          | 0          |   0.0 |  0.00
Comm    | 0.013551   | 0.014921   | 0.016486   |   0.5 | 24.22
Output  | 0.0036231  | 0.0052432  | 0.0076862  |   1.1 |  8.51
Modify  | 0.0028728  | 0.0050753  | 0.0071948  |   1.8 |  8.24
Other   |            | 0.00364    |            |       |  5.91

Nlocal:        943.750 ave        1005 max         795 min
Histogram: 8 0 0 0 0 0 5 106 1 8
Nghost:        3824.00 ave        3950 max        3279 min
Histogram: 8 0 8 0 0 0 0 32 0 80
Neighs:         0.00000 ave           0 max           0 min
Histogram: 128 0 0 0 0 0 0 0 0 0
FullNghs:      157512.0 ave      168840 max      125360 min
Histogram: 8 0 0 0 0 5 3 70 34 8

Total # of neighbors = 20161600
Ave neighs/atom = 166.90066
Neighbor list builds = 0
Dangerous builds = 0
print 		"${boxlen} ${boxwidth} ${pressure} ${sigma} ${epsilon} ${current_time} $t" append sstest.txt
436.9082584572 57.10648 1.70746110229372e-05 6.05809455065739e-06 9.99950003332973e-05 0.001 2.12628425542105e-17
print 		"run 1 end"
run 1 end
minimize 	1.0e-30 1.0e-30 100000 100000
WARNING: Using 'neigh_modify every 1 delay 0 check yes' setting during minimization (../min.cpp:188)
Per MPI rank memory allocation (min/avg/max) = 1.855 | 1.972 | 1.999 Mbytes
Time Step Lx Pxx Pxy Pxz Ly Lz Pyy Pzz Pyz TotEng Temp Volume 
       0.001      142    436.90826   -239.09497 -7.7144804e-11 4.8172696e-10     57.10648     57.10648    -1074.457    -1074.457 -2.2502667e-13   -497263.39 2.1262843e-17    1424823.4 
       0.002      143    436.90826    -236.6765 -7.0383809e-11 4.6440247e-10     57.10648     57.10648   -1072.6949   -1072.6949 -5.3569842e-13   -497263.39 2.1262843e-17    1424823.4 
       0.003      144    436.90826   -234.22458 -5.8560834e-11 4.2734119e-10     57.10648     57.10648   -1071.3113   -1071.3113 4.9596475e-13   -497263.39 2.1262843e-17    1424823.4 
       0.004      145    436.90826   -231.80155 -4.964984e-11 3.8009605e-10     57.10648     57.10648   -1069.8305   -1069.8305 4.7079347e-12   -497263.39 2.1262843e-17    1424823.4 
       0.005      146    436.90826   -229.40681 -5.6902213e-11 3.4720002e-10     57.10648     57.10648   -1068.4242   -1068.4242 5.3000645e-11   -497263.39 2.1262843e-17    1424823.4 
       0.006      147    436.90826   -227.03998 -2.3159055e-10 5.5237623e-10     57.10648     57.10648   -1067.0068   -1067.0068 5.7385915e-10   -497263.39 2.1262843e-17    1424823.4 
       0.007      148    436.90826   -224.69944 -1.9899161e-09 3.3158462e-09     57.10648     57.10648   -1065.6093   -1065.6093 5.7022942e-09   -497263.39 2.1262843e-17    1424823.4 
       0.008      149    436.90826   -222.37523 -1.8701346e-08 3.0335319e-08     57.10648     57.10648   -1064.2363   -1064.2363 5.2956274e-08   -497263.39 2.1262843e-17    1424823.4 
       0.009      150    436.90826   -220.10625 -1.5965707e-07 2.5974912e-07     57.10648     57.10648   -1062.8693   -1062.8693 4.4081919e-07   -497263.39 2.1262843e-17    1424823.4 
        0.01      151    436.90826   -218.17566 -6.3133435e-07 1.0311304e-06     57.10648     57.10648   -1061.7291   -1061.7291 1.6970593e-06   -497263.39 2.1262843e-17    1424823.4 
       0.011      152    436.90826   -216.38118 -3.091126e-07 5.0753478e-07     57.10648     57.10648   -1060.6653   -1060.6653 7.8659031e-07   -497263.39 2.1262843e-17    1424823.4 
       0.012      153    436.90826    -214.1538 -6.3009845e-08 9.9771252e-08     57.10648     57.10648   -1059.3232   -1059.3232 1.4221215e-07   -497263.39 2.1262843e-17    1424823.4 
       0.013      154    436.90826   -211.85003 -1.3006485e-08 -2.6706983e-08     57.10648     57.10648   -1057.9657   -1057.9657 1.1401832e-07   -497263.39 2.1262843e-17    1424823.4 
       0.014      155    436.90826   -209.79608 3.3006197e-08 -3.0983685e-07     57.10648     57.10648   -1056.7348   -1056.7348 3.0957722e-07   -497263.39 2.1262843e-17    1424823.4 
       0.015      156    436.90826    -207.9497 -1.9203125e-08 -2.7117315e-07     57.10648     57.10648   -1055.6305   -1055.6305 2.3626217e-07   -497263.39 2.1262843e-17    1424823.4 
       0.016      157    436.90826   -205.79016 -8.9056649e-08 -1.4819976e-07     57.10648     57.10648   -1054.3548   -1054.3548 1.0777267e-07   -497263.39 2.1262843e-17    1424823.4 
       0.017      158    436.90826   -203.68053 -1.718102e-07 -4.2529377e-07     57.10648     57.10648   -1053.0913   -1053.0913 1.8366665e-07   -497263.39 2.1262843e-17    1424823.4 
       0.018      159    436.90826   -201.87019 -7.929254e-08 -5.1492175e-07     57.10648     57.10648   -1052.0106   -1052.0106 1.5681493e-07   -497263.39 2.1262843e-17    1424823.4 
       0.019      160    436.90826   -199.78755 3.4658366e-08 -2.0347329e-07     57.10648     57.10648   -1050.7777   -1050.7777 -4.269049e-09   -497263.39 2.1262843e-17    1424823.4 
        0.02      161    436.90826   -197.62178 8.417501e-08 -1.7362978e-07     57.10648     57.10648   -1049.4827   -1049.4827 -1.2559749e-07   -497263.39 2.1262843e-17    1424823.4 
       0.021      162    436.90826   -195.71227 1.0626597e-07 -2.1326634e-07     57.10648     57.10648   -1048.3436   -1048.3436 -1.5485059e-07   -497263.39 2.1262843e-17    1424823.4 
       0.022      163    436.90826   -193.69799 4.6167198e-08 -1.4956651e-07     57.10648     57.10648   -1047.1489   -1047.1489 -4.4885773e-08   -497263.39 2.1262843e-17    1424823.4 
       0.023      164    436.90826   -191.53004 -1.857497e-09 -2.1717978e-07     57.10648     57.10648   -1045.8547   -1045.8547 -9.8594173e-08   -497263.39 2.1262843e-17    1424823.4 
       0.024      165    436.90826   -189.56311 -2.6202415e-08 -4.0934984e-07     57.10648     57.10648    -1044.681    -1044.681 -2.3044447e-07   -497263.39 2.1262843e-17    1424823.4 
       0.025      166    436.90826   -187.63286 2.7376692e-08 -3.1073249e-07     57.10648     57.10648   -1043.5347   -1043.5347 -9.7801657e-08   -497263.39 2.1262843e-17    1424823.4 
       0.026      167    436.90826   -185.52571 4.3520015e-08 -2.6357488e-07     57.10648     57.10648   -1042.2794   -1042.2794 -5.1347145e-08   -497263.39 2.1262843e-17    1424823.4 
       0.027      168    436.90826   -183.54552 -6.6317447e-09 -3.1275889e-07     57.10648     57.10648   -1041.0963   -1041.0963 -1.355282e-07   -497263.39 2.1262843e-17    1424823.4 
       0.028      169    436.90826    -181.6084 -3.3070021e-08 -1.5014823e-07     57.10648     57.10648   -1039.9449   -1039.9449 -4.8962149e-08   -497263.39 2.1262843e-17    1424823.4 
       0.029      170    436.90826   -179.49644 -2.247421e-08 -3.802241e-08     57.10648     57.10648    -1038.689    -1038.689 3.6492617e-08   -497263.39 2.1262843e-17    1424823.4 
        0.03      171    436.90826   -177.44972 -4.9528515e-08 -4.5887224e-08     57.10648     57.10648   -1037.4649   -1037.4649 1.2966791e-08   -497263.39 2.1262843e-17    1424823.4 
       0.031      172    436.90826   -175.51715 -7.6495619e-08 -7.7894114e-08     57.10648     57.10648   -1036.3158   -1036.3158 2.0382709e-08   -497263.39 2.1262843e-17    1424823.4 
       0.032      173    436.90826   -173.44519 -8.9258996e-08 -3.4037692e-08     57.10648     57.10648   -1035.0851   -1035.0851 1.3445288e-07   -497263.39 2.1262843e-17    1424823.4 
       0.033      174    436.90826   -171.38316 -2.04756e-07 5.8752687e-08     57.10648     57.10648    -1033.851    -1033.851 2.8977197e-07   -497263.39 2.1262843e-17    1424823.4 
       0.034      175    436.90826    -169.4711 -2.9535993e-07 9.0720982e-08     57.10648     57.10648   -1032.7137   -1032.7137 2.6968009e-07   -497263.39 2.1262843e-17    1424823.4 
       0.035      176    436.90826   -167.43521 -2.2270075e-07 1.5559801e-08     57.10648     57.10648   -1031.5055   -1031.5055 1.5171498e-07   -497263.39 2.1262843e-17    1424823.4 
       0.036      177    436.90826   -165.36601 -2.4527156e-07 -5.3397148e-08     57.10648     57.10648    -1030.267    -1030.267 2.1036991e-07   -497263.39 2.1262843e-17    1424823.4 
       0.037      178    436.90826   -163.43568 -2.7830809e-07 -1.1849027e-07     57.10648     57.10648    -1029.118    -1029.118 2.7872644e-07   -497263.39 2.1262843e-17    1424823.4 
       0.038      179    436.90826   -161.38689 -2.0652478e-07 -1.6328587e-07     57.10648     57.10648   -1027.9027   -1027.9027 2.2715773e-07   -497263.39 2.1262843e-17    1424823.4 
       0.039      180    436.90826   -159.29144 -1.780242e-07 -2.5401645e-07     57.10648     57.10648   -1026.6486   -1026.6486 3.136932e-07   -497263.39 2.1262843e-17    1424823.4 
        0.04      181    436.90826    -157.3589 -1.4925099e-07 -2.5583334e-07     57.10648     57.10648    -1025.498    -1025.498 4.398174e-07   -497263.39 2.1262843e-17    1424823.4 
       0.041      182    436.90826   -155.33281 -9.5161149e-08 -1.9823785e-07     57.10648     57.10648   -1024.2962   -1024.2962 3.5251673e-07   -497263.39 2.1262843e-17    1424823.4 
       0.042      183    436.90826   -153.24875 -7.0029613e-08 -3.7850862e-07     57.10648     57.10648   -1023.0495   -1023.0495 3.678908e-07   -497263.39 2.1262843e-17    1424823.4 
       0.043      184    436.90826   -151.32612 -6.77421e-08 -5.1902335e-07     57.10648     57.10648   -1021.9041   -1021.9041 4.3036706e-07   -497263.39 2.1262843e-17    1424823.4 
       0.044      185    436.90826   -149.30082 -7.3861711e-09 -3.6375977e-07     57.10648     57.10648   -1020.7026   -1020.7026 3.7385539e-07   -497263.39 2.1262843e-17    1424823.4 
       0.045      186    436.90826   -147.22467 1.4267644e-07 -3.8415542e-07     57.10648     57.10648   -1019.4617   -1019.4617 3.9532807e-07   -497263.39 2.1262843e-17    1424823.4 
       0.046      187    436.90826    -145.2932 1.8509971e-07 -3.5472069e-07     57.10648     57.10648   -1018.3103   -1018.3103 3.4560761e-07   -497263.39 2.1262843e-17    1424823.4 
       0.047      188    436.90826    -143.2434 7.5345998e-08 -2.3805478e-07     57.10648     57.10648   -1017.0939   -1017.0939 2.5195373e-07   -497263.39 2.1262843e-17    1424823.4 
       0.048      189    436.90826   -141.15674 7.7378603e-08 -3.3195576e-07     57.10648     57.10648   -1015.8476   -1015.8476 3.1293658e-07    -497263.4 2.1262843e-17    1424823.4 
       0.049      190    436.90826     -139.227 7.5418352e-08 -3.6345608e-07     57.10648     57.10648   -1014.6968   -1014.6968 3.5680763e-07    -497263.4 2.1262843e-17    1424823.4 
        0.05      191    436.90826   -137.19402 -1.7063771e-08 -2.1064775e-07     57.10648     57.10648   -1013.4898   -1013.4898 2.7596153e-07    -497263.4 2.1262843e-17    1424823.4 
       0.051      192    436.90826   -135.13575 -5.8786408e-08 -1.8159494e-07     57.10648     57.10648   -1012.2616   -1012.2616 2.7387014e-07    -497263.4 2.1262843e-17    1424823.4 
       0.052      193    436.90826    -133.2088 -3.2269956e-08 -1.2543132e-07     57.10648     57.10648   -1011.1119   -1011.1119 2.2171819e-07    -497263.4 2.1262843e-17    1424823.4 
       0.053      194    436.90826   -131.15811 -3.0928643e-08 -3.8353538e-08     57.10648     57.10648   -1009.8936   -1009.8936 8.5256404e-08    -497263.4 2.1262843e-17    1424823.4 
       0.054      195    436.90826   -129.09478 -5.9580055e-08 -1.8909343e-08     57.10648     57.10648   -1008.6636   -1008.6636 -4.8091717e-08    -497263.4 2.1262843e-17    1424823.4 
       0.055      196    436.90826   -127.14919 -8.464923e-08 7.1506989e-09     57.10648     57.10648   -1007.5024   -1007.5024 -6.8952978e-08    -497263.4 2.1262843e-17    1424823.4 
       0.056      197    436.90826   -125.09591 -1.1558713e-07 5.2545019e-08     57.10648     57.10648   -1006.2818   -1006.2818 -6.5654147e-08    -497263.4 2.1262843e-17    1424823.4 
       0.057      198    436.90826   -123.04362 -2.0879723e-07 8.8867923e-08     57.10648     57.10648   -1005.0595   -1005.0595 -2.6789524e-07    -497263.4 2.1262843e-17    1424823.4 
       0.058      199    436.90826   -121.10069 -2.5361184e-07 1.1750339e-07     57.10648     57.10648   -1003.8997   -1003.8997 -3.7458945e-07    -497263.4 2.1262843e-17    1424823.4 
       0.059      200    436.90826   -119.06048 -2.1364211e-07 1.3699472e-07     57.10648     57.10648   -1002.6859   -1002.6859 -2.3552648e-07    -497263.4 2.1262843e-17    1424823.4 
        0.06      201    436.90826   -117.02984 -2.1136922e-07 1.2091141e-07     57.10648     57.10648   -1001.4776   -1001.4776 -1.6228606e-07    -497263.4 2.1262843e-17    1424823.4 
       0.061      202    436.90826   -115.07874 -1.8977479e-07 2.0129484e-08     57.10648     57.10648   -1000.3129   -1000.3129 -7.9207221e-08    -497263.4 2.1262843e-17    1424823.4 
       0.062      203    436.90826   -113.02584 -1.6058395e-07 -6.6612057e-08     57.10648     57.10648   -999.09044   -999.09044 -6.6431581e-08    -497263.4 2.1262843e-17    1424823.4 
       0.063      204    436.90826   -110.98732 -1.5430431e-07 -1.7349522e-07     57.10648     57.10648   -997.87841   -997.87841 -1.7742553e-07    -497263.4 2.1262843e-17    1424823.4 
       0.064      205    436.90826   -109.02654 -1.4315362e-07 -2.3168069e-07     57.10648     57.10648   -996.70813   -996.70813 -1.8218154e-07    -497263.4 2.1262843e-17    1424823.4 
       0.065      206    436.90826   -106.97928 -1.3782845e-07 -1.9877915e-07     57.10648     57.10648   -995.48798   -995.48798 -9.8776009e-08    -497263.4 2.1262843e-17    1424823.4 
       0.066      207    436.90826   -104.94655 -1.4977421e-07 -2.1563368e-07     57.10648     57.10648   -994.28013   -994.28013 -7.0255081e-08    -497263.4 2.1262843e-17    1424823.4 
       0.067      208    436.90826   -102.99471 -1.5699326e-07 -2.2842868e-07     57.10648     57.10648    -993.1156    -993.1156 6.0167245e-08    -497263.4 2.1262843e-17    1424823.4 
       0.068      209    436.90826   -100.95751 -1.6360679e-07 -1.9773473e-07     57.10648     57.10648   -991.90036   -991.90036 1.7635659e-07    -497263.4 2.1262843e-17    1424823.4 
       0.069      210    436.90826   -98.924087 -1.9678408e-07 -2.3351078e-07     57.10648     57.10648   -990.69259   -990.69259 1.7412773e-07    -497263.4 2.1262843e-17    1424823.4 
        0.07      211    436.90826    -96.96457 -2.1334952e-07 -2.8407714e-07     57.10648     57.10648   -989.52408   -989.52408 1.7011956e-07    -497263.4 2.1262843e-17    1424823.4 
       0.071      212    436.90826   -94.914946 -2.1031185e-07 -2.7506587e-07     57.10648     57.10648   -988.30051   -988.30051 2.4187315e-07    -497263.4 2.1262843e-17    1424823.4 
       0.072      213    436.90826   -92.863912 -2.4367797e-07 -2.8113729e-07     57.10648     57.10648   -987.08253   -987.08253 3.2058722e-07    -497263.4 2.1262843e-17    1424823.4 
       0.073      214    436.90826   -90.908114 -2.3476777e-07 -2.2672807e-07     57.10648     57.10648   -985.91672   -985.91672 3.2194459e-07    -497263.4 2.1262843e-17    1424823.4 
       0.074      215    436.90826    -88.86873 -1.5432034e-07 -1.1973005e-07     57.10648     57.10648   -984.69869   -984.69869 3.3674568e-07    -497263.4 2.1262843e-17    1424823.4 
       0.075      216    436.90826   -86.823212 -8.6516313e-08 -9.995387e-09     57.10648     57.10648   -983.48391   -983.48391 4.6993571e-07    -497263.4 2.1262843e-17    1424823.4 
       0.076      217    436.90826   -84.878787 -8.9357518e-08 7.1048482e-08     57.10648     57.10648   -982.32553   -982.32553 4.6930175e-07    -497263.4 2.1262843e-17    1424823.4 
       0.077      218    436.90826   -82.835451 -1.1781782e-07 4.6298412e-08     57.10648     57.10648   -981.10473   -981.10473 3.3320848e-07    -497263.4 2.1262843e-17    1424823.4 
       0.078      219    436.90826   -80.785862 -9.6744191e-08 -2.7109625e-09     57.10648     57.10648   -979.88721   -979.88721 3.1899148e-07    -497263.4 2.1262843e-17    1424823.4 
       0.079      220    436.90826   -78.842077 -7.9739274e-08 -2.4431278e-08     57.10648     57.10648   -978.72982   -978.72982 3.0891347e-07    -497263.4 2.1262843e-17    1424823.4 
        0.08      221    436.90826   -76.789865 -1.1530506e-07 -1.0751509e-08     57.10648     57.10648    -977.5036    -977.5036 2.6355897e-07    -497263.4 2.1262843e-17    1424823.4 
       0.081      222    436.90826   -74.742281 -1.3058041e-07 2.9858928e-08     57.10648     57.10648   -976.28678   -976.28678 3.1306715e-07    -497263.4 2.1262843e-17    1424823.4 
       0.082      223    436.90826     -72.8079 -6.8850631e-08 9.1125725e-08     57.10648     57.10648   -975.13549   -975.13549 3.8130071e-07    -497263.4 2.1262843e-17    1424823.4 
       0.083      224    436.90826    -70.75041 -3.3416116e-08 8.7321037e-08     57.10648     57.10648   -973.90624   -973.90624 3.7930626e-07    -497263.4 2.1262843e-17    1424823.4 
       0.084      225    436.90826   -68.706165 -1.4297786e-08 2.7512623e-08     57.10648     57.10648   -972.69077   -972.69077 3.773413e-07    -497263.4 2.1262843e-17    1424823.4 
       0.085      226    436.90826   -66.774113 2.5308707e-08 -6.9121899e-08     57.10648     57.10648   -971.54128   -971.54128 2.6659784e-07    -497263.4 2.1262843e-17    1424823.4 
       0.086      227    436.90826   -64.709269 3.0314011e-08 -1.3368054e-07     57.10648     57.10648     -970.308     -970.308 2.2871961e-07    -497263.4 2.1262843e-17    1424823.4 
       0.087      228    436.90826   -62.665945 3.7173302e-08 -2.3950953e-07     57.10648     57.10648   -969.09232   -969.09232 3.1046517e-07    -497263.4 2.1262843e-17    1424823.4 
       0.088      229    436.90826   -60.728305 5.120361e-08 -2.3364818e-07     57.10648     57.10648   -967.93979   -967.93979 2.7810671e-07    -497263.4 2.1262843e-17    1424823.4 
       0.089      230    436.90826   -58.654814 3.9170138e-08 -2.0018025e-07     57.10648     57.10648   -966.70187   -966.70187 2.0595075e-07    -497263.4 2.1262843e-17    1424823.4 
        0.09      231    436.90826   -56.607206 2.3915957e-08 -3.0900834e-07     57.10648     57.10648   -965.48291   -965.48291 2.7268002e-07    -497263.4 2.1262843e-17    1424823.4 
       0.091      232    436.90826   -54.671484 2.5942817e-08 -3.1632779e-07     57.10648     57.10648   -964.33164   -964.33164 3.0353865e-07    -497263.4 2.1262843e-17    1424823.4 
       0.092      233    436.90826    -52.61307 1.9682461e-08 -2.5761118e-07     57.10648     57.10648   -963.10342   -963.10342 1.5427486e-07    -497263.4 2.1262843e-17    1424823.4 
       0.093      234    436.90826   -50.577186 -7.9433453e-09 -2.932951e-07     57.10648     57.10648   -961.89055   -961.89055 -7.3307506e-08    -497263.4 2.1262843e-17    1424823.4 
       0.094      235    436.90826   -48.628042 1.4385809e-08 -2.1521194e-07     57.10648     57.10648   -960.73142   -960.73142 -1.1595713e-07    -497263.4 2.1262843e-17    1424823.4 
       0.095      236    436.90826   -46.570867 5.6907971e-08 -1.642624e-07     57.10648     57.10648    -959.5047    -959.5047 -4.8184151e-10    -497263.4 2.1262843e-17    1424823.4 
       0.096      237    436.90826   -44.540417 6.9065652e-08 -2.3959272e-07     57.10648     57.10648   -958.29425   -958.29425 -1.865285e-08    -497263.4 2.1262843e-17    1424823.4 
       0.097      238    436.90826    -42.57198 3.8593339e-08 -2.2449982e-07     57.10648     57.10648   -957.12364   -957.12364 -7.9746454e-08    -497263.4 2.1262843e-17    1424823.4 
       0.098      239    436.90826   -40.517318 -1.3342939e-08 -1.6839481e-07     57.10648     57.10648   -955.89918   -955.89918 -5.3594136e-08    -497263.4 2.1262843e-17    1424823.4 
       0.099      240    436.90826   -38.499043 -7.0273992e-08 -1.5378966e-07     57.10648     57.10648   -954.69532   -954.69532 -5.4680098e-08    -497263.4 2.1262843e-17    1424823.4 
         0.1      241    436.90826   -36.525098 -1.0944944e-07 -5.9898464e-08     57.10648     57.10648   -953.52123   -953.52123 -8.3074699e-08    -497263.4 2.1262843e-17    1424823.4 
       0.101      242    436.90826   -34.486253 -1.7127963e-07 8.4176883e-09     57.10648     57.10648   -952.30703   -952.30703 -5.8672292e-08    -497263.4 2.1262843e-17    1424823.4 
       0.102      243    436.90826   -32.492745 -2.1112795e-07 1.8339901e-08     57.10648     57.10648   -951.11745   -951.11745 4.2455269e-09    -497263.4 2.1262843e-17    1424823.4 
       0.103      244    436.90826   -30.504302 -1.6525721e-07 6.8179268e-08     57.10648     57.10648   -949.93426   -949.93426 1.8851389e-08    -497263.4 2.1262843e-17    1424823.4 
       0.104      245    436.90826   -28.453622 -2.321445e-07 1.1214689e-07     57.10648     57.10648   -948.71387   -948.71387 -5.7604793e-09    -497263.4 2.1262843e-17    1424823.4 
       0.105      246    436.90826   -26.461314 -3.4104625e-07 7.5208586e-08     57.10648     57.10648   -947.52475   -947.52475 5.3489852e-08    -497263.4 2.1262843e-17    1424823.4 
       0.106      247    436.90826   -24.461425 -2.9518321e-07 2.9743517e-08     57.10648     57.10648   -946.33412   -946.33412 1.421101e-07    -497263.4 2.1262843e-17    1424823.4 
       0.107      248    436.90826   -22.403535 -3.2654367e-07 2.9563716e-08     57.10648     57.10648    -945.1102    -945.1102 1.1094235e-07    -497263.4 2.1262843e-17    1424823.4 
       0.108      249    436.90826   -20.429007 -3.4857988e-07 1.4394084e-08     57.10648     57.10648   -943.93164   -943.93164 3.5484639e-08    -497263.4 2.1262843e-17    1424823.4 
       0.109      250    436.90826   -18.444004 -1.3435523e-07 -1.5886977e-08     57.10648     57.10648    -942.7491    -942.7491 9.8148849e-08    -497263.4 2.1262843e-17    1424823.4 
        0.11      251    436.90826   -16.369128 -3.1904156e-09 -7.4504767e-08     57.10648     57.10648   -941.51583   -941.51583 2.0255131e-07    -497263.4 2.1262843e-17    1424823.4 
       0.111      252    436.90826   -14.379025 2.1885548e-08 -1.5566602e-07     57.10648     57.10648   -940.32797   -940.32797 1.9200024e-07    -497263.4 2.1262843e-17    1424823.4 
       0.112      253    436.90826   -12.412991 5.9440117e-08 -1.2061308e-07     57.10648     57.10648   -939.15616   -939.15616 4.4017697e-08    -497263.4 2.1262843e-17    1424823.4 
       0.113      254    436.90826   -10.334559 8.5845621e-08 -1.0273007e-07     57.10648     57.10648    -937.9212    -937.9212 -6.0783249e-08    -497263.4 2.1262843e-17    1424823.4 
       0.114      255    436.90826   -8.3129927 1.5012692e-07 -2.1371474e-07     57.10648     57.10648   -936.71468   -936.71468 -1.6326838e-07    -497263.4 2.1262843e-17    1424823.4 
       0.115      256    436.90826   -6.3851582  2.48181e-07 -2.3038907e-07     57.10648     57.10648   -935.56536   -935.56536 -1.9326023e-07    -497263.4 2.1262843e-17    1424823.4 
       0.116      257    436.90826   -4.4413707 2.0904578e-07 -1.1591735e-07     57.10648     57.10648   -934.41042   -934.41042 -1.8269735e-07    -497263.4 2.1262843e-17    1424823.4 
       0.117      258    436.90826   -2.6805108 1.2115139e-07 -8.5568659e-08     57.10648     57.10648      -933.36      -933.36 -1.7704682e-07    -497263.4 2.1262843e-17    1424823.4 
       0.118      259    436.90826   -1.3103742 7.142073e-08 -9.2668806e-08     57.10648     57.10648   -932.54256   -932.54256 -7.9351165e-08    -497263.4 2.1262843e-17    1424823.4 
       0.119      260    436.90826  -0.45494022 4.2039382e-08 -3.6673127e-08     57.10648     57.10648   -932.03486   -932.03486 -1.4898428e-08    -497263.4 2.1262843e-17    1424823.4 
        0.12      261    436.90826 -0.074023595 5.1272063e-08 3.8116571e-08     57.10648     57.10648   -931.80758   -931.80758 -6.0556979e-09    -497263.4 2.1262843e-17    1424823.4 
       0.121      262    436.90826  0.056992729 6.0987276e-08 6.5807996e-08     57.10648     57.10648   -931.72892   -931.72892 8.9101381e-11    -497263.4 2.1262843e-17    1424823.4 
       0.122      263    436.90826  0.088272719 6.2240041e-08 6.9261521e-08     57.10648     57.10648   -931.71066   -931.71066 9.3064832e-10    -497263.4 2.1262843e-17    1424823.4 
       0.123      264    436.90826  0.093619654 6.3112386e-08 6.9457697e-08     57.10648     57.10648   -931.70746   -931.70746 2.7586975e-10    -497263.4 2.1262843e-17    1424823.4 
       0.124      265    436.90826  0.094449235 6.3517951e-08 6.9275141e-08     57.10648     57.10648   -931.70691   -931.70691 4.3899187e-11    -497263.4 2.1262843e-17    1424823.4 
       0.125      266    436.90826  0.094545576 6.3702108e-08 6.8990563e-08     57.10648     57.10648   -931.70687   -931.70687 7.8673243e-12    -497263.4 2.1262843e-17    1424823.4 
       0.126      267    436.90826  0.094550639 6.3781214e-08 6.8703585e-08     57.10648     57.10648   -931.70687   -931.70687 1.270805e-12    -497263.4 2.1262843e-17    1424823.4 
       0.127      268    436.90826  0.094545185 6.3809333e-08 6.8411937e-08     57.10648     57.10648   -931.70687   -931.70687 1.7642843e-13    -497263.4 2.1262843e-17    1424823.4 
       0.128      269    436.90826  0.094536964 6.3800126e-08 6.8051519e-08     57.10648     57.10648   -931.70687   -931.70687 1.7649803e-13    -497263.4 2.1262843e-17    1424823.4 
Loop time of 14.9289 on 128 procs for 127 steps with 120800 atoms

85.5% CPU use with 128 MPI tasks x 1 OpenMP threads

Minimization stats:
  Stopping criterion = energy tolerance
  Energy initial, next-to-last, final = 
     -497263.390685587  -497263.401315486  -497263.401315486
  Force two-norm initial, final = 0.028977153 8.2759284e-06
  Force max component initial, final = 0.00099978477 1.2071906e-07
  Final line search alpha, max atom move = 1.0000000 1.2071906e-07
  Iterations, force evaluations = 127 254

MPI task timing breakdown:
Section |  min time  |  avg time  |  max time  |%varavg| %total
---------------------------------------------------------------
Pair    | 7.2438     | 8.2276     | 9.1491     |  13.8 | 55.11
Neigh   | 0          | 0          | 0          |   0.0 |  0.00
Comm    | 3.0806     | 3.5863     | 4.4674     |  17.1 | 24.02
Output  | 0.47099    | 0.47353    | 0.4768     |   0.1 |  3.17
Modify  | 0          | 0          | 0          |   0.0 |  0.00
Other   |            | 2.642      |            |       | 17.69

Nlocal:        943.750 ave        1005 max         795 min
Histogram: 8 0 0 0 0 0 5 106 1 8
Nghost:        3824.00 ave        3950 max        3279 min
Histogram: 8 0 8 0 0 0 0 32 0 80
Neighs:         0.00000 ave           0 max           0 min
Histogram: 128 0 0 0 0 0 0 0 0 0
FullNghs:      157512.0 ave      168840 max      125360 min
Histogram: 8 0 0 0 0 5 3 70 34 8

Total # of neighbors = 20161600
Ave neighs/atom = 166.90066
Neighbor list builds = 0
Dangerous builds = 0
print 		"${boxlen} ${boxwidth} ${pressure} ${sigma} ${epsilon} ${current_time} $t" append ssminimize.txt
436.9082584572 57.10648 0.0945369639372759 0.0945138312317023 9.99950003332973e-05 0.128 2.12628425542105e-17
print 		"minimize end"
minimize end
unfix strain
#if "$i == 25" then quit
clear
  using 1 OpenMP thread(s) per MPI task
package kokkos
next j
jump SELF initialSettings
variable atmos        equal 1.01325                    # Atomic Mass

units       metal
atom_style  atomic
boundary p p p
if "$j ==1" then "read_data ./Fe_tensile.lat" else "read_data ./aftermm.lat"
read_data ./aftermm.lat
Reading data file ...
  orthogonal box = (0.0000000 0.0000000 0.0000000) to (436.86457 57.106480 57.106480)
  16 by 2 by 4 MPI processor grid
  reading atoms ...
  120800 atoms
  reading velocities ...
  120800 velocities
  read_data CPU = 0.562 seconds

#timestep    0.01
#timestep 0.1

pair_style  eam/alloy
pair_coeff  * * ./FeCuNi.eam.alloy Fe Fe Fe Fe Fe Fe Fe Fe Fe
#pair_coeff  * * ./new_potential/FeCuNi.eam.alloy Fe Fe Fe Fe Cu
#mass        *4 ${mass}
#pair_style  aenet
#pair_coeff  * * v03 Fe 10sw-10sw.nn Fe Fe Fe Fe Fe
#pair_coeff  * * ./new_potential/FeCuNi.eam.alloy Fe Fe Fe Fe Cu
#mass        *4 ${mass}
mass        * 55.845
#mass        5 58.454 correct value!!!

#group naming
group source type 2
800 atoms in group source
group detector type 3
800 atoms in group detector
group edge type 5
0 atoms in group edge
group edge_buf type 7
0 atoms in group edge_buf
group buffer type 7 8 9
0 atoms in group buffer
#group longage type 9

variable s equal xcm(source,x)
variable d equal xcm(detector,x)
variable g equal xcm(edge,x)
variable t equal temp
variable p equal press
variable v equal vol
variable e equal etotal
variable i equal time
variable FIG string iranai
variable f equal fcm(detector,x)
variable l equal vcm(detector,x)

##############################################
variable rescaleSteps equal 0
variable relaxationSteps equal 0
variable initialSteps equal ${rescaleSteps}+${relaxationSteps}
variable initialSteps equal 0+${relaxationSteps}
variable initialSteps equal 0+0
##############################################

#dump fuck all atom 1 strain.dump
#dump_modify fuck scale no

thermo 1
thermo_style custom time step lx pxx pxy pxz ly lz pyy pzz pyz etotal temp vol

#fix extra all print 1 "$i $s $d $g $l $f $t $v $e $p" file outp.txt

fix nve1 all nve
minimize 1.0e-30 1.0e-30 100000 100000
WARNING: Using 'neigh_modify every 1 delay 0 check yes' setting during minimization (../min.cpp:188)
Neighbor list info ...
  update every 1 steps, delay 0 steps, check yes
  max neighbors/atom: 2000, page size: 100000
  master list distance cutoff = 7.6
  ghost atom cutoff = 7.6
  binsize = 7.6, bins = 58 8 8
  1 neighbor lists, perpetual/occasional/extra = 1 0 0
  (1) pair eam/alloy/kk, perpetual
      attributes: full, newton off, kokkos_device
      pair build: full/bin/kk/device
      stencil: full/bin/3d
      bin: kk/device
Per MPI rank memory allocation (min/avg/max) = 1.830 | 1.943 | 1.970 Mbytes
Time Step Lx Pxx Pxy Pxz Ly Lz Pyy Pzz Pyz TotEng Temp Volume 
           0        0    436.86457 1.7076877e-05 -7.67863e-11 4.8064854e-10     57.10648     57.10648   -931.85637   -931.85637 -5.6474994e-13    -497263.4            0    1424680.9 
       0.001        1    436.86457 1.6417752e-05 -7.3840171e-11 4.7422883e-10     57.10648     57.10648   -931.85637   -931.85637 -3.2731618e-13    -497263.4            0    1424680.9 
       0.002        2    436.86457 1.5406832e-05 -6.5489324e-11 4.5267759e-10     57.10648     57.10648   -931.85637   -931.85637  -3.7659e-13    -497263.4            0    1424680.9 
       0.003        3    436.86457 1.5840341e-05 -5.8696722e-11 4.307651e-10     57.10648     57.10648   -931.85637   -931.85637 -1.1200995e-14    -497263.4            0    1424680.9 
Loop time of 0.642149 on 128 procs for 3 steps with 120800 atoms

81.1% CPU use with 128 MPI tasks x 1 OpenMP threads

Minimization stats:
  Stopping criterion = energy tolerance
  Energy initial, next-to-last, final = 
     -497263.401315488  -497263.401315488  -497263.401315488
  Force two-norm initial, final = 1.9612555e-06 1.2276517e-06
  Force max component initial, final = 2.2208922e-08 1.3591633e-08
  Final line search alpha, max atom move = 1.0000000 1.3591633e-08
  Iterations, force evaluations = 3 6

MPI task timing breakdown:
Section |  min time  |  avg time  |  max time  |%varavg| %total
---------------------------------------------------------------
Pair    | 0.19067    | 0.23678    | 0.30947    |   6.5 | 36.87
Neigh   | 0          | 0          | 0          |   0.0 |  0.00
Comm    | 0.26039    | 0.31257    | 0.33723    |   4.5 | 48.68
Output  | 0.0072115  | 0.0073108  | 0.0074132  |   0.1 |  1.14
Modify  | 0          | 0          | 0          |   0.0 |  0.00
Other   |            | 0.08548    |            |       | 13.31

Nlocal:        943.750 ave        1005 max         795 min
Histogram: 8 0 0 0 0 0 5 106 1 8
Nghost:        3824.00 ave        3950 max        3279 min
Histogram: 8 0 8 0 0 0 0 32 0 80
Neighs:         0.00000 ave           0 max           0 min
Histogram: 128 0 0 0 0 0 0 0 0 0
FullNghs:      157512.0 ave      168840 max      125360 min
Histogram: 8 0 0 0 0 5 3 70 34 8

Total # of neighbors = 20161600
Ave neighs/atom = 166.90066
Neighbor list builds = 0
Dangerous builds = 0
variable oshikko equal pxx
variable p0 equal ${oshikko}
variable p0 equal 1.58403408036495e-05
variable unko equal lx
variable lx0 equal ${unko}
variable lx0 equal 436.864572

variable current_time equal time

variable boxlen equal lx
variable boxwidth equal ly
variable pressure equal pxx
variable epsilon equal ln(lx/${lx0})
variable epsilon equal ln(lx/436.864572)
variable sigma equal abs(pxx-${p0})
variable sigma equal abs(pxx-1.58403408036495e-05)

# initial Settings end here #

#fix strain all deform 1000 x trate 0.0001
#fix strain1 all deform 1 x scale 1.0001
#run 1
#minimize 1.0e-30 1.0e-30 100000 100000
#unfix strain1
#fix strain2 all deform 1 x scale 1.0001
#run 1
#minimize 1.0e-30 1.0e-30 100000 100000
#unfix strain2
#fix strain1 all deform 1 x scale 1.0001
#run 1
#minimize 1.0e-30 1.0e-30 100000 100000
#quit


label		deformationLoop
#variable	i loop 25
if "$j == 1" then "jump SELF initialmm"

label deform
variable 	expRate equal 1+0.0001*$j
variable 	expRate equal 1+0.0001*2
fix strain 	all deform 1 x scale ${expRate}
fix strain 	all deform 1 x scale 1.0002
run 		1
Per MPI rank memory allocation (min/avg/max) = 1.561 | 1.643 | 1.662 Mbytes
Time Step Lx Pxx Pxy Pxz Ly Lz Pyy Pzz Pyz TotEng Temp Volume 
           0        3    436.86457 1.584034e-05 -5.870455e-11 4.3068542e-10     57.10648     57.10648   -931.85637   -931.85637 -3.7100146e-13    -497263.4            0    1424680.9 
       0.001        4    436.95194 1.5837478e-05 -5.9693379e-11 4.3060795e-10     57.10648     57.10648   -931.67004   -931.67004 -6.9648019e-13    -497263.4 8.3305894e-18    1424965.9 
Loop time of 0.165075 on 128 procs for 1 steps with 120800 atoms

Performance: 0.523 ns/day, 45.854 hours/ns, 6.058 timesteps/s
86.6% CPU use with 128 MPI tasks x 1 OpenMP threads

MPI task timing breakdown:
Section |  min time  |  avg time  |  max time  |%varavg| %total
---------------------------------------------------------------
Pair    | 0.010929   | 0.056009   | 0.13447    |  16.6 | 33.93
Neigh   | 0          | 0          | 0          |   0.0 |  0.00
Comm    | 0.0070871  | 0.067726   | 0.12908    |  16.5 | 41.03
Output  | 0.0036108  | 0.034562   | 0.13638    |  18.2 | 20.94
Modify  | 0.00074002 | 0.00349    | 0.0071381  |   2.6 |  2.11
Other   |            | 0.003288   |            |       |  1.99

Nlocal:        943.750 ave        1008 max         792 min
Histogram: 8 0 0 0 0 0 14 97 1 8
Nghost:        3824.00 ave        3952 max        3278 min
Histogram: 8 0 8 0 0 0 0 32 2 78
Neighs:         0.00000 ave           0 max           0 min
Histogram: 128 0 0 0 0 0 0 0 0 0
FullNghs:      157512.0 ave      169344 max      124744 min
Histogram: 8 0 0 0 0 3 5 84 20 8

Total # of neighbors = 20161600
Ave neighs/atom = 166.90066
Neighbor list builds = 0
Dangerous builds = 0
print 		"${boxlen} ${boxwidth} ${pressure} ${sigma} ${epsilon} ${current_time} $t" append sstest.txt
436.9519449144 57.10648 1.58374782248741e-05 2.86257877544002e-09 0.000199980002666245 0.001 8.33058943484688e-18
print 		"run 1 end"
run 1 end
minimize 	1.0e-30 1.0e-30 100000 100000
WARNING: Using 'neigh_modify every 1 delay 0 check yes' setting during minimization (../min.cpp:188)
Per MPI rank memory allocation (min/avg/max) = 1.855 | 1.972 | 1.999 Mbytes
Time Step Lx Pxx Pxy Pxz Ly Lz Pyy Pzz Pyz TotEng Temp Volume 
       0.001        4    436.95194   -478.25098 -6.03194e-11 4.3036675e-10     57.10648     57.10648   -1217.0093   -1217.0093 6.5050041e-13   -497263.36 8.3305894e-18    1424965.9 
       0.002        5    436.95194    -473.4115 -5.9545251e-11 4.1624399e-10     57.10648     57.10648   -1213.4841   -1213.4841 -2.3148054e-13   -497263.36 8.3305894e-18    1424965.9 
       0.003        6    436.95194    -468.5038 -5.9756735e-11 3.8701194e-10     57.10648     57.10648   -1210.7155   -1210.7155 -5.0817439e-13   -497263.36 8.3305894e-18    1424965.9 
       0.004        7    436.95194   -463.66008 -5.8543087e-11 3.4927607e-10     57.10648     57.10648   -1207.7565   -1207.7565 3.5769701e-12   -497263.36 8.3305894e-18    1424965.9 
       0.005        8    436.95194   -458.87181 -6.4976579e-11 3.1984797e-10     57.10648     57.10648   -1204.9459   -1204.9459 4.0967619e-11   -497263.36 8.3305894e-18    1424965.9 
       0.006        9    436.95194   -454.13636 -2.2390964e-10 5.3842899e-10     57.10648     57.10648   -1202.1103   -1202.1103 4.5312996e-10   -497263.36 8.3305894e-18    1424965.9 
       0.007       10    436.95194   -449.45256 -1.8826913e-09 3.2209445e-09     57.10648     57.10648   -1199.3145   -1199.3145 4.5370355e-09   -497263.36 8.3305894e-18    1424965.9 
       0.008       11    436.95194   -444.78817 -1.7681828e-08 2.9148796e-08     57.10648     57.10648   -1196.5601   -1196.5601 4.2798456e-08   -497263.36 8.3305894e-18    1424965.9 
       0.009       12    436.95194   -440.12478 -1.6627991e-07 2.7310064e-07     57.10648     57.10648   -1193.7504   -1193.7504 3.9863816e-07   -497263.36 8.3305894e-18    1424965.9 
        0.01       13    436.95194    -435.6459 -1.3598048e-06 2.2295392e-06     57.10648     57.10648   -1191.1148   -1191.1148 3.2243609e-06   -497263.36 8.3305894e-18    1424965.9 
       0.011       14    436.95194   -432.04728 -3.406838e-06 5.5676724e-06     57.10648     57.10648   -1188.9618   -1188.9618 7.9545337e-06   -497263.36 8.3305894e-18    1424965.9 
       0.012       15    436.95194   -428.21471 -9.2846212e-07 1.4973975e-06     57.10648     57.10648   -1186.6602   -1186.6602 2.0544512e-06   -497263.36 8.3305894e-18    1424965.9 
       0.013       16    436.95194   -423.59893 -1.7543146e-07 2.3937579e-07     57.10648     57.10648   -1183.9417   -1183.9417 2.8308989e-07   -497263.36 8.3305894e-18    1424965.9 
       0.014       17    436.95194   -418.87726 -1.484428e-07 -4.6367728e-08     57.10648     57.10648   -1181.1032   -1181.1032 1.4661955e-07   -497263.36 8.3305894e-18    1424965.9 
       0.015       18    436.95194    -414.4251 -5.104975e-07 -1.2333755e-06     57.10648     57.10648   -1178.4689   -1178.4689 4.7249358e-07   -497263.36 8.3305894e-18    1424965.9 
       0.016       19    436.95194   -410.78615 -9.0120581e-07 -2.917646e-06     57.10648     57.10648   -1176.3026   -1176.3026 7.3681669e-07   -497263.36 8.3305894e-18    1424965.9 
       0.017       20    436.95194    -406.8449 -2.8943208e-07 -1.1895724e-06     57.10648     57.10648   -1173.9421   -1173.9421 6.524806e-08   -497263.37 8.3305894e-18    1424965.9 
       0.018       21    436.95194   -402.51811 -3.4105958e-08 -7.2760206e-07     57.10648     57.10648   -1171.3752   -1171.3752 -2.3643621e-07   -497263.37 8.3305894e-18    1424965.9 
       0.019       22    436.95194   -398.63343 1.9770655e-07 -8.9534611e-07     57.10648     57.10648   -1169.0647   -1169.0647 -2.3289008e-07   -497263.37 8.3305894e-18    1424965.9 
        0.02       23    436.95194   -394.62003 2.2960511e-07 -5.8092163e-07     57.10648     57.10648   -1166.6645   -1166.6645 -6.6887793e-08   -497263.37 8.3305894e-18    1424965.9 
       0.021       24    436.95194   -390.20755 1.078519e-07 -6.4469385e-07     57.10648     57.10648   -1164.0427   -1164.0427 -2.2355642e-07   -497263.37 8.3305894e-18    1424965.9 
       0.022       25    436.95194   -386.07328 -1.8115283e-07 -1.5801344e-06     57.10648     57.10648    -1161.584    -1161.584 -6.6616193e-07   -497263.37 8.3305894e-18    1424965.9 
       0.023       26    436.95194   -382.34941 -2.3884201e-07 -1.7558887e-06     57.10648     57.10648   -1159.3596   -1159.3596 -3.407225e-07   -497263.37 8.3305894e-18    1424965.9 
       0.024       27    436.95194    -378.2367 -7.3064513e-08 -1.1392435e-06     57.10648     57.10648   -1156.9108   -1156.9108 -2.4502907e-08   -497263.37 8.3305894e-18    1424965.9 
       0.025       28    436.95194   -374.13466 -1.0568498e-07 -1.1729093e-06     57.10648     57.10648   -1154.4756   -1154.4756 -3.8069789e-07   -497263.37 8.3305894e-18    1424965.9 
       0.026       29    436.95194   -370.28266 -5.4022951e-08 -7.2605961e-07     57.10648     57.10648   -1152.1753   -1152.1753 -2.9936947e-07   -497263.37 8.3305894e-18    1424965.9 
       0.027       30    436.95194      -366.12 -6.4997145e-09 -1.922425e-07     57.10648     57.10648   -1149.6932   -1149.6932 1.6979271e-07   -497263.37 8.3305894e-18    1424965.9 
       0.028       31    436.95194   -361.88586 -3.5636146e-07 -1.4214569e-07     57.10648     57.10648   -1147.1825   -1147.1825 3.2487985e-07   -497263.37 8.3305894e-18    1424965.9 
       0.029       32    436.95194   -358.02753 -9.2321037e-07 -2.7202787e-07     57.10648     57.10648   -1144.8777   -1144.8777  4.69815e-07   -497263.37 8.3305894e-18    1424965.9 
        0.03       33    436.95194   -354.04729 -7.3597625e-07 -9.6696312e-08     57.10648     57.10648   -1142.5023   -1142.5023 7.478587e-07   -497263.37 8.3305894e-18    1424965.9 
       0.031       34    436.95194   -349.83139 -7.630293e-07 1.6594202e-07     57.10648     57.10648   -1140.0044   -1140.0044 1.0413343e-06   -497263.37 8.3305894e-18    1424965.9 
       0.032       35    436.95194   -345.91657 -1.0927196e-06 2.4907733e-07     57.10648     57.10648   -1137.6662   -1137.6662 1.0384482e-06   -497263.37 8.3305894e-18    1424965.9 
       0.033       36    436.95194   -341.96191 -9.2685006e-07 -5.4477423e-10     57.10648     57.10648   -1135.3046   -1135.3046 6.9825955e-07   -497263.37 8.3305894e-18    1424965.9 
       0.034       37    436.95194   -337.74104 -1.2134725e-06 -1.3833256e-07     57.10648     57.10648   -1132.8043   -1132.8043 1.0357684e-06   -497263.37 8.3305894e-18    1424965.9 
       0.035       38    436.95194   -333.82446 -1.9719986e-06 -3.2358678e-07     57.10648     57.10648   -1130.4659   -1130.4659 1.6495133e-06   -497263.37 8.3305894e-18    1424965.9 
       0.036       39    436.95194   -329.90218 -1.3266075e-06 -5.1478789e-07     57.10648     57.10648   -1128.1228   -1128.1228 1.1174338e-06   -497263.37 8.3305894e-18    1424965.9 
       0.037       40    436.95194   -325.64745 -6.9935208e-07 -7.3017343e-07     57.10648     57.10648    -1125.602    -1125.602 9.7408327e-07   -497263.37 8.3305894e-18    1424965.9 
       0.038       41    436.95194   -321.64453 -4.6801808e-07 -9.8490565e-07     57.10648     57.10648   -1123.2128   -1123.2128 1.5751184e-06   -497263.37 8.3305894e-18    1424965.9 
       0.039       42    436.95194   -317.72071 -4.0111158e-07 -8.7530339e-07     57.10648     57.10648   -1120.8691   -1120.8691 1.5278476e-06   -497263.37 8.3305894e-18    1424965.9 
        0.04       43    436.95194   -313.50004 -5.4132884e-07 -1.286308e-06     57.10648     57.10648   -1118.3672   -1118.3672 1.6023168e-06   -497263.37 8.3305894e-18    1424965.9 
       0.041       44    436.95194    -309.5593 -7.9955941e-07 -2.1735797e-06     57.10648     57.10648   -1116.0166   -1116.0166 2.3661553e-06   -497263.37 8.3305894e-18    1424965.9 
       0.042       45    436.95194   -305.68832 -3.864572e-07 -1.5393409e-06     57.10648     57.10648   -1113.7043   -1113.7043 1.8305759e-06   -497263.37 8.3305894e-18    1424965.9 
       0.043       46    436.95194   -301.47111 2.2019716e-07 -1.2601099e-06     57.10648     57.10648   -1111.2025   -1111.2025 1.2487077e-06   -497263.37 8.3305894e-18    1424965.9 
       0.044       47    436.95194   -297.47326 5.8562374e-07 -1.6168535e-06     57.10648     57.10648   -1108.8199   -1108.8199 1.1170196e-06   -497263.37 8.3305894e-18    1424965.9 
       0.045       48    436.95194   -293.51618 1.9062799e-07 -1.2223241e-06     57.10648     57.10648   -1106.4564   -1106.4564 1.0252879e-06   -497263.38 8.3305894e-18    1424965.9 
       0.046       49    436.95194   -289.29124 -6.1787489e-08 -1.1478874e-06     57.10648     57.10648   -1103.9483   -1103.9483 1.3199555e-06   -497263.38 8.3305894e-18    1424965.9 
       0.047       50    436.95194   -285.33762 -1.559963e-07 -1.4472951e-06     57.10648     57.10648   -1101.5933   -1101.5933 1.8179396e-06   -497263.38 8.3305894e-18    1424965.9 
       0.048       51    436.95194   -281.44418 -3.6102772e-07 -8.9679302e-07     57.10648     57.10648   -1099.2684   -1099.2684 1.2942733e-06   -497263.38 8.3305894e-18    1424965.9 
       0.049       52    436.95194   -277.26019 -4.1963007e-07 -6.9520655e-07     57.10648     57.10648   -1096.7821   -1096.7821 8.8688151e-07   -497263.38 8.3305894e-18    1424965.9 
        0.05       53    436.95194   -273.29222 -2.4456874e-07 -8.0925921e-07     57.10648     57.10648   -1094.4208   -1094.4208 7.1111797e-07   -497263.38 8.3305894e-18    1424965.9 
       0.051       54    436.95194   -269.32764 -2.1641245e-07 -3.6503076e-07     57.10648     57.10648   -1092.0539   -1092.0539 3.6595768e-07   -497263.38 8.3305894e-18    1424965.9 
[...]
       0.259      262    439.04889    -6.011828 -5.3850361e-06 -9.4465303e-05     57.10648     57.10648    -930.8015    -930.8015 2.4441457e-11    -497263.4 8.330589e-18    1431804.3 
        0.26      263    439.04889   -5.9845673 -1.1363185e-05 -9.4446615e-05     57.10648     57.10648   -930.78522   -930.78522 2.0500147e-10    -497263.4 8.330589e-18    1431804.3 
       0.261      264    439.04889   -5.9426123 -2.2127453e-05 -9.4750986e-05     57.10648     57.10648    -930.7616    -930.7616 -2.6818056e-11    -497263.4 8.330589e-18    1431804.3 
       0.262      265    439.04889   -5.9128124 -2.9186098e-05 -9.6102676e-05     57.10648     57.10648   -930.74472   -930.74472 4.771475e-12    -497263.4 8.330589e-18    1431804.3 
       0.263      266    439.04889   -5.8758467 -3.5818987e-05 -9.9411112e-05     57.10648     57.10648   -930.72221   -930.72221 2.0448968e-10    -497263.4 8.330589e-18    1431804.3 
       0.264      267    439.04889   -5.8022277 -4.7475553e-05 -0.00010646263     57.10648     57.10648   -930.67653   -930.67653 3.9971243e-11    -497263.4 8.330589e-18    1431804.3 
       0.265      268    439.04889   -5.7277201 -5.8415391e-05 -0.00011277927     57.10648     57.10648   -930.63105   -930.63105 1.5204374e-10    -497263.4 8.330589e-18    1431804.3 
       0.266      269    439.04889   -5.6609489 -6.7482998e-05 -0.00011617623     57.10648     57.10648   -930.59203   -930.59203 5.2741849e-10    -497263.4 8.330589e-18    1431804.3 
       0.267      270    439.04889   -5.5996838 -7.5502515e-05 -0.00011651279     57.10648     57.10648   -930.55726   -930.55726 1.873969e-10    -497263.4 8.330589e-18    1431804.3 
       0.268      271    439.04889    -5.537276 -8.3632155e-05 -0.00011504815     57.10648     57.10648   -930.52088   -930.52088 4.0734973e-10    -497263.4 8.330589e-18    1431804.3 
       0.269      272    439.04889   -5.4239444 -9.8157091e-05 -0.00011351824     57.10648     57.10648    -930.4527    -930.4527 8.1387503e-10    -497263.4 8.330589e-18    1431804.3 
        0.27      273    439.04889   -5.2875581 -0.0001154808 -0.00011506339     57.10648     57.10648   -930.37037   -930.37037 1.5238025e-10    -497263.4 8.330589e-18    1431804.3 
       0.271      274    439.04889    -5.186088 -0.00012810733 -0.00012018634     57.10648     57.10648   -930.31001   -930.31001 5.0845507e-10    -497263.4 8.330589e-18    1431804.3 
       0.272      275    439.04889   -5.0456188 -0.00014361393 -0.00013099084     57.10648     57.10648   -930.22705   -930.22705 9.2597701e-10    -497263.4 8.330589e-18    1431804.3 
       0.273      276    439.04889   -4.8668974 -0.0001595129 -0.00014338135     57.10648     57.10648   -930.12069   -930.12069 4.1279148e-10    -497263.4 8.330589e-18    1431804.3 
       0.274      277    439.04889   -4.6876909 -0.0001727844 -0.00015046279     57.10648     57.10648   -930.01309   -930.01309 1.0364206e-09    -497263.4 8.330589e-18    1431804.3 
       0.275      278    439.04889   -4.4854761 -0.00018795311 -0.00015161802     57.10648     57.10648   -929.89142   -929.89142 1.5189183e-09    -497263.4 8.330589e-18    1431804.3 
       0.276      279    439.04889   -4.2980327 -0.00020438895 -0.00014980879     57.10648     57.10648   -929.77956   -929.77956 8.1035726e-10    -497263.4 8.330589e-18    1431804.3 
       0.277      280    439.04889   -4.0864503 -0.00022575342 -0.00014804635     57.10648     57.10648   -929.65481   -929.65481 2.483995e-09    -497263.4 8.330589e-18    1431804.3 
       0.278      281    439.04889   -3.8264291 -0.0002510919 -0.00014834148     57.10648     57.10648   -929.50146   -929.50146 2.3120697e-09    -497263.4 8.330589e-18    1431804.3 
       0.279      282    439.04889   -3.6107104 -0.00026638954 -0.0001504327     57.10648     57.10648   -929.37302   -929.37302 4.3416577e-10    -497263.4 8.330589e-18    1431804.3 
        0.28      283    439.04889   -3.3518657 -0.0002718087 -0.00015327637     57.10648     57.10648   -929.21747   -929.21747 1.6306303e-09    -497263.4 8.330589e-18    1431804.3 
       0.281      284    439.04889   -3.0447861 -0.00026775231 -0.0001526634     57.10648     57.10648    -929.0329    -929.0329 2.1821895e-10    -497263.4 8.330589e-18    1431804.3 
       0.282      285    439.04889   -2.8001383 -0.00025835714 -0.00014469118     57.10648     57.10648   -928.88695   -928.88695 -4.1834217e-10    -497263.4 8.330589e-18    1431804.3 
       0.283      286    439.04889    -2.517418 -0.00024489502 -0.00012574777     57.10648     57.10648      -928.72      -928.72 1.6836986e-09    -497263.4 8.330589e-18    1431804.3 
       0.284      287    439.04889    -2.278767 -0.00023548381 -0.00010713043     57.10648     57.10648   -928.57883   -928.57883 3.3922442e-10    -497263.4 8.330589e-18    1431804.3 
       0.285      288    439.04889   -2.0365619 -0.00023019006 -8.9846991e-05     57.10648     57.10648    -928.4337    -928.4337 6.8628524e-10    -497263.4 8.330589e-18    1431804.3 
       0.286      289    439.04889   -1.7483271 -0.00022484684 -7.2264031e-05     57.10648     57.10648   -928.26061   -928.26061 2.1637235e-09    -497263.4 8.330589e-18    1431804.3 
       0.287      290    439.04889   -1.5478664 -0.00021734289 -6.2573729e-05     57.10648     57.10648   -928.14142   -928.14142 9.620873e-10    -497263.4 8.330589e-18    1431804.3 
       0.288      291    439.04889   -1.3474617 -0.0002002231 -5.4997603e-05     57.10648     57.10648   -928.02359   -928.02359 1.6884095e-09    -497263.4 8.330589e-18    1431804.3 
       0.289      292    439.04889   -1.1496286 -0.00017523843 -4.6384442e-05     57.10648     57.10648   -927.90652   -927.90652 1.665569e-09    -497263.4 8.330589e-18    1431804.3 
        0.29      293    439.04889  -0.96551884 -0.00014530734 -3.4401108e-05     57.10648     57.10648   -927.79555   -927.79555 1.3135139e-09    -497263.4 8.330589e-18    1431804.3 
       0.291      294    439.04889  -0.78219997 -0.00011114111 -1.8343835e-05     57.10648     57.10648   -927.68465   -927.68465 1.1798718e-09    -497263.4 8.330589e-18    1431804.3 
       0.292      295    439.04889  -0.65747293 -8.4601705e-05 -3.9718339e-06     57.10648     57.10648   -927.61072   -927.61072 9.0539488e-10    -497263.4 8.330589e-18    1431804.3 
       0.293      296    439.04889  -0.53393906 -5.5079699e-05 1.3816673e-05     57.10648     57.10648   -927.53911   -927.53911 5.4675802e-10    -497263.4 8.330589e-18    1431804.3 
       0.294      297    439.04889  -0.41324201 -2.5556511e-05 3.1369337e-05     57.10648     57.10648   -927.46777   -927.46777 6.1955383e-10    -497263.4 8.330589e-18    1431804.3 
       0.295      298    439.04889  -0.31512673 -7.0832229e-07 4.3883821e-05     57.10648     57.10648   -927.40786   -927.40786 6.721057e-10    -497263.4 8.330589e-18    1431804.3 
       0.296      299    439.04889   -0.2206962 2.7115525e-05 5.4951265e-05     57.10648     57.10648   -927.35039   -927.35039 3.897973e-10    -497263.4 8.330589e-18    1431804.3 
       0.297      300    439.04889  -0.14755976 5.4584381e-05 6.3954739e-05     57.10648     57.10648   -927.30738   -927.30738 4.9671565e-10    -497263.4 8.330589e-18    1431804.3 
       0.298      301    439.04889 -0.087472023 8.3369555e-05 7.1693917e-05     57.10648     57.10648   -927.27287   -927.27287 5.5763943e-10    -497263.4 8.330589e-18    1431804.3 
       0.299      302    439.04889 -0.025472919 0.00011567123 7.9165629e-05     57.10648     57.10648    -927.2362    -927.2362 1.0078615e-10    -497263.4 8.330589e-18    1431804.3 
         0.3      303    439.04889  0.020139395 0.00014074277 8.4738391e-05     57.10648     57.10648   -927.20799   -927.20799 2.423158e-10    -497263.4 8.330589e-18    1431804.3 
       0.301      304    439.04889  0.066718173 0.00016951025 9.2027025e-05     57.10648     57.10648   -927.17945   -927.17945 1.8311184e-10    -497263.4 8.330589e-18    1431804.3 
       0.302      305    439.04889   0.10110073 0.00019305496 9.9214823e-05     57.10648     57.10648   -927.15964   -927.15964 3.5678455e-11    -497263.4 8.330589e-18    1431804.3 
       0.303      306    439.04889   0.12797389 0.00021003634 0.00010623018     57.10648     57.10648   -927.14455   -927.14455 2.4928966e-10    -497263.4 8.330589e-18    1431804.3 
       0.304      307    439.04889    0.1545353 0.00022244381 0.0001137032     57.10648     57.10648   -927.12846   -927.12846 8.3125527e-11    -497263.4 8.330589e-18    1431804.3 
       0.305      308    439.04889   0.17600514 0.00022888301 0.00012088223     57.10648     57.10648   -927.11485   -927.11485 8.2917759e-11    -497263.4 8.330589e-18    1431804.3 
       0.306      309    439.04889   0.19647622 0.0002339434 0.00012980133     57.10648     57.10648   -927.10268   -927.10268 1.4660482e-10    -497263.4 8.330589e-18    1431804.3 
       0.307      310    439.04889   0.20888842 0.00023799412 0.00013666519     57.10648     57.10648   -927.09597   -927.09597 6.4640773e-11    -497263.4 8.330589e-18    1431804.3 
       0.308      311    439.04889   0.22211317 0.00024439266 0.00014408074     57.10648     57.10648   -927.08822   -927.08822 1.3429884e-10    -497263.4 8.330589e-18    1431804.3 
       0.309      312    439.04889   0.23285271 0.00025085921 0.0001497618     57.10648     57.10648   -927.08132   -927.08132 1.2037962e-10    -497263.4 8.330589e-18    1431804.3 
        0.31      313    439.04889   0.24198844 0.00025891941 0.00015527756     57.10648     57.10648   -927.07556   -927.07556 1.5521236e-10    -497263.4 8.330589e-18    1431804.3 
       0.311      314    439.04889   0.24755309 0.00026581052 0.0001596594     57.10648     57.10648    -927.0727    -927.0727 8.120667e-11    -497263.4 8.330589e-18    1431804.3 
       0.312      315    439.04889   0.25145758 0.00026959933 0.00016267486     57.10648     57.10648   -927.07077   -927.07077 8.1021014e-11    -497263.4 8.330589e-18    1431804.3 
       0.313      316    439.04889   0.25673495 0.00027106397 0.00016549956     57.10648     57.10648   -927.06729   -927.06729 2.4480603e-11    -497263.4 8.330589e-18    1431804.3 
       0.314      317    439.04889   0.26035623 0.00026981843 0.00016731164     57.10648     57.10648   -927.06475   -927.06475 4.3822284e-11    -497263.4 8.330589e-18    1431804.3 
       0.315      318    439.04889   0.26221143 0.00026646096 0.00016884222     57.10648     57.10648   -927.06389   -927.06389 2.7267782e-11    -497263.4 8.330589e-18    1431804.3 
       0.316      319    439.04889   0.26278988 0.00026329669 0.00016959444     57.10648     57.10648   -927.06391   -927.06391 1.4336317e-11    -497263.4 8.330589e-18    1431804.3 
       0.317      320    439.04889   0.26424654 0.00025949888 0.00017017841     57.10648     57.10648   -927.06288   -927.06288 2.8526612e-11    -497263.4 8.330589e-18    1431804.3 
       0.318      321    439.04889   0.26529541 0.00025669294 0.00017055103     57.10648     57.10648   -927.06189   -927.06189 2.3668532e-11    -497263.4 8.330589e-18    1431804.3 
       0.319      322    439.04889   0.26466581 0.00025354233 0.00017113637     57.10648     57.10648   -927.06236   -927.06236 1.2533782e-11    -497263.4 8.330589e-18    1431804.3 
        0.32      323    439.04889   0.26327575 0.00025092351 0.00017191622     57.10648     57.10648   -927.06354   -927.06354 1.5711916e-11    -497263.4 8.330589e-18    1431804.3 
       0.321      324    439.04889   0.26251221 0.00024720233 0.00017326216     57.10648     57.10648   -927.06401   -927.06401 1.6738792e-11    -497263.4 8.330589e-18    1431804.3 
       0.322      325    439.04889   0.26242931 0.0002432691 0.00017454395     57.10648     57.10648   -927.06378   -927.06378 6.2336841e-12    -497263.4 8.330589e-18    1431804.3 
       0.323      326    439.04889   0.26141989 0.00023761289 0.00017593794     57.10648     57.10648   -927.06428   -927.06428 1.6798174e-11    -497263.4 8.330589e-18    1431804.3 
       0.324      327    439.04889   0.25956193 0.0002317221 0.00017695252     57.10648     57.10648   -927.06559   -927.06559 4.1248728e-12    -497263.4 8.330589e-18    1431804.3 
       0.325      328    439.04889    0.2576147 0.00022500956 0.00017743744     57.10648     57.10648   -927.06689   -927.06689 5.3055496e-12    -497263.4 8.330589e-18    1431804.3 
       0.326      329    439.04889    0.2562464 0.00021831078 0.00017750051     57.10648     57.10648   -927.06759   -927.06759 4.4427977e-12    -497263.4 8.330589e-18    1431804.3 
       0.327      330    439.04889   0.25501916 0.00021278383 0.00017731519     57.10648     57.10648   -927.06818   -927.06818 6.0700277e-12    -497263.4 8.330589e-18    1431804.3 
       0.328      331    439.04889   0.25302298 0.00020717444 0.00017717574     57.10648     57.10648   -927.06944   -927.06944 3.7305178e-12    -497263.4 8.330589e-18    1431804.3 
       0.329      332    439.04889   0.25105188 0.0002027297 0.00017731673     57.10648     57.10648   -927.07072   -927.07072 1.2747432e-11    -497263.4 8.330589e-18    1431804.3 
        0.33      333    439.04889   0.24912364 0.00019798357 0.0001777062     57.10648     57.10648   -927.07184   -927.07184 7.2569901e-12    -497263.4 8.330589e-18    1431804.3 
       0.331      334    439.04889   0.24748841 0.00019360088 0.0001781692     57.10648     57.10648   -927.07274   -927.07274 1.2120416e-11    -497263.4 8.330589e-18    1431804.3 
       0.332      335    439.04889   0.24551084 0.0001886189 0.00017855767     57.10648     57.10648   -927.07394   -927.07394 5.2585062e-12    -497263.4 8.330589e-18    1431804.3 
       0.333      336    439.04889   0.24354634 0.00018358566 0.00017856431     57.10648     57.10648   -927.07518   -927.07518 4.9595296e-12    -497263.4 8.330589e-18    1431804.3 
       0.334      337    439.04889   0.24166901 0.00017820914 0.00017825584     57.10648     57.10648   -927.07628   -927.07628 2.9702011e-12    -497263.4 8.330589e-18    1431804.3 
       0.335      338    439.04889   0.23995378 0.00017334192 0.00017784379     57.10648     57.10648   -927.07724   -927.07724 2.5928698e-12    -497263.4 8.330589e-18    1431804.3 
       0.336      339    439.04889   0.23783205 0.00016840172 0.00017749167     57.10648     57.10648   -927.07851   -927.07851 2.1232085e-13    -497263.4 8.330589e-18    1431804.3 
       0.337      340    439.04889   0.23571184 0.00016413363 0.00017736121     57.10648     57.10648   -927.07983   -927.07983 1.5401642e-12    -497263.4 8.330589e-18    1431804.3 
       0.338      341    439.04889   0.23334067 0.00015922715 0.00017743486     57.10648     57.10648   -927.08125   -927.08125 -9.4639807e-16    -497263.4 8.330589e-18    1431804.3 
       0.339      342    439.04889   0.23140257 0.00015482225 0.00017773279     57.10648     57.10648   -927.08237   -927.08237 8.2732736e-13    -497263.4 8.330589e-18    1431804.3 
        0.34      343    439.04889   0.22905612 0.0001494667 0.00017815761     57.10648     57.10648   -927.08375   -927.08375 2.2226833e-12    -497263.4 8.330589e-18    1431804.3 
       0.341      344    439.04889    0.2267123 0.0001442929 0.00017829497     57.10648     57.10648   -927.08518   -927.08518 3.1249861e-12    -497263.4 8.330589e-18    1431804.3 
       0.342      345    439.04889   0.22412991 0.00013845606 0.00017807296     57.10648     57.10648   -927.08674   -927.08674 1.9661559e-12    -497263.4 8.330589e-18    1431804.3 
       0.343      346    439.04889   0.22171316 0.00013279463 0.00017766387     57.10648     57.10648   -927.08815   -927.08815 2.1987093e-12    -497263.4 8.330589e-18    1431804.3 
       0.344      347    439.04889   0.21894878 0.00012665783 0.00017727015     57.10648     57.10648   -927.08977   -927.08977 2.0809938e-12    -497263.4 8.330589e-18    1431804.3 
       0.345      348    439.04889   0.21615446 0.00012113891 0.0001770537     57.10648     57.10648   -927.09146   -927.09146 3.3974617e-12    -497263.4 8.330589e-18    1431804.3 
       0.346      349    439.04889   0.21300099 0.00011529029 0.00017692472     57.10648     57.10648   -927.09337   -927.09337 3.0509181e-12    -497263.4 8.330589e-18    1431804.3 
       0.347      350    439.04889   0.21016219 0.00010997105 0.00017682101     57.10648     57.10648   -927.09505   -927.09505 3.5822198e-12    -497263.4 8.330589e-18    1431804.3 
       0.348      351    439.04889   0.20712567 0.00010432796 0.00017658616     57.10648     57.10648   -927.09683   -927.09683 3.0524558e-12    -497263.4 8.330589e-18    1431804.3 
       0.349      352    439.04889   0.20393754 9.8745315e-05 0.00017599414     57.10648     57.10648   -927.09874   -927.09874 3.9886573e-12    -497263.4 8.330589e-18    1431804.3 
        0.35      353    439.04889   0.20076718 9.3392999e-05 0.00017497305     57.10648     57.10648   -927.10067   -927.10067 2.481603e-12    -497263.4 8.330589e-18    1431804.3 
       0.351      354    439.04889   0.19837211 8.9349348e-05 0.00017385396     57.10648     57.10648   -927.10208   -927.10208 2.036044e-12    -497263.4 8.330589e-18    1431804.3 
       0.352      355    439.04889   0.19633543 8.6008123e-05 0.00017278662     57.10648     57.10648   -927.10327   -927.10327 1.298525e-12    -497263.4 8.330589e-18    1431804.3 
       0.353      356    439.04889   0.19473474 8.3668394e-05 0.00017206327     57.10648     57.10648   -927.10422   -927.10422 -4.4607595e-13    -497263.4 8.330589e-18    1431804.3 
       0.354      357    439.04889   0.19354668 8.2212753e-05 0.00017165296     57.10648     57.10648   -927.10495   -927.10495 -6.4521158e-14    -497263.4 8.330589e-18    1431804.3 
       0.355      358    439.04889   0.19288254 8.1575331e-05 0.00017145472     57.10648     57.10648   -927.10535   -927.10535 5.4596347e-14    -497263.4 8.330589e-18    1431804.3 
       0.356      359    439.04889   0.19249146 8.134972e-05 0.00017129104     57.10648     57.10648   -927.10558   -927.10558 7.9821953e-14    -497263.4 8.330589e-18    1431804.3 
       0.357      360    439.04889   0.19226954 8.1364682e-05 0.00017110116     57.10648     57.10648   -927.10571   -927.10571 5.4455046e-13    -497263.4 8.330589e-18    1431804.3 
Loop time of 43.8451 on 128 procs for 356 steps with 120800 atoms

86.0% CPU use with 128 MPI tasks x 1 OpenMP threads

Minimization stats:
  Stopping criterion = energy tolerance
  Energy initial, next-to-last, final = 
     -497236.716013733  -497263.401315479  -497263.401315479
  Force two-norm initial, final = 1.4567028 1.6425844e-05
  Force max component initial, final = 0.050249885 1.9470530e-07
  Final line search alpha, max atom move = 1.0000000 1.9470530e-07
  Iterations, force evaluations = 356 712

MPI task timing breakdown:
Section |  min time  |  avg time  |  max time  |%varavg| %total
---------------------------------------------------------------
Pair    | 20.175     | 23.187     | 26.316     |  29.0 | 52.88
Neigh   | 0.0041787  | 0.012834   | 0.023221   |   5.1 |  0.03
Comm    | 9.0923     | 11.164     | 14.348     |  44.6 | 25.46
Output  | 1.3119     | 1.3174     | 1.356      |   0.4 |  3.00
Modify  | 0          | 0          | 0          |   0.0 |  0.00
Other   |            | 8.164      |            |       | 18.62

Nlocal:        943.750 ave        1013 max         744 min
Histogram: 8 0 0 0 0 7 1 73 22 17
Nghost:        3805.25 ave        3956 max        3006 min
Histogram: 8 8 0 0 0 0 0 0 16 96
Neighs:         0.00000 ave           0 max           0 min
Histogram: 128 0 0 0 0 0 0 0 0 0
FullNghs:      157488.0 ave      170184 max      116670 min
Histogram: 8 0 0 0 7 1 0 37 55 20

Total # of neighbors = 20158400
Ave neighs/atom = 166.87417
Neighbor list builds = 1
Dangerous builds = 0
print 		"${boxlen} ${boxwidth} ${pressure} ${sigma} ${epsilon} ${current_time} $t" append ssminimize.txt
439.04889486 57.10648 0.192269542860781 0.192253702520232 0.00498754151103897 0.357 8.33058899981859e-18
print 		"minimize end"
minimize end
unfix strain
#if "$i == 25" then quit
clear
  using 1 OpenMP thread(s) per MPI task
package kokkos
next j
jump SELF initialSettings
quit
