# Fe

2400 atoms
33 atom types
0  3886.095964 xlo xhi
0    57.106480 ylo yhi
0    57.106480 zlo zhi

Atoms

           1      7   308.374992     0.000000     0.000000
           2      7   309.802654     1.427662     1.427662
           3      7   308.374992     0.000000     2.855324
           4      7   309.802654     1.427662     4.282986
           5      7   308.374992     0.000000     5.710648
           6      7   309.802654     1.427662     7.138310
           7      7   308.374992     0.000000     8.565972
           8      7   309.802654     1.427662     9.993634
           9      7   308.374992     0.000000    11.421296
          10      7   309.802654     1.427662    12.848958
          11      7   308.374992     0.000000    14.276620
          12      7   309.802654     1.427662    15.704282
          13      7   308.374992     0.000000    17.131944
          14      7   309.802654     1.427662    18.559606
          15      7   308.374992     0.000000    19.987268
          16      7   309.802654     1.427662    21.414930
          17      7   308.374992     0.000000    22.842592
          18      7   309.802654     1.427662    24.270254
          19      7   308.374992     0.000000    25.697916
          20      7   309.802654     1.427662    27.125578
          21      7   308.374992     0.000000    28.553240
          22      7   309.802654     1.427662    29.980902
          23      7   308.374992     0.000000    31.408564
          24      7   309.802654     1.427662    32.836226
          25      7   308.374992     0.000000    34.263888
          26      7   309.802654     1.427662    35.691550
          27      7   308.374992     0.000000    37.119212
          28      7   309.802654     1.427662    38.546874
          29      7   308.374992     0.000000    39.974536
          30      7   309.802654     1.427662    41.402198
          31      7   308.374992     0.000000    42.829860
          32      7   309.802654     1.427662    44.257522
          33      7   308.374992     0.000000    45.685184
          34      7   309.802654     1.427662    47.112846
          35      7   308.374992     0.000000    48.540508
          36      7   309.802654     1.427662    49.968170
          37      7   308.374992     0.000000    51.395832
          38      7   309.802654     1.427662    52.823494
          39      7   308.374992     0.000000    54.251156
          40      7   309.802654     1.427662    55.678818
          41      7   308.374992     2.855324     0.000000
          42      7   309.802654     4.282986     1.427662
          43      7   308.374992     2.855324     2.855324
          44      7   309.802654     4.282986     4.282986
          45      7   308.374992     2.855324     5.710648
          46      7   309.802654     4.282986     7.138310
          47      7   308.374992     2.855324     8.565972
          48      7   309.802654     4.282986     9.993634
          49      7   308.374992     2.855324    11.421296
          50      7   309.802654     4.282986    12.848958
          51      7   308.374992     2.855324    14.276620
          52      7   309.802654     4.282986    15.704282
          53      7   308.374992     2.855324    17.131944
          54      7   309.802654     4.282986    18.559606
          55      7   308.374992     2.855324    19.987268
          56      7   309.802654     4.282986    21.414930
          57      7   308.374992     2.855324    22.842592
          58      7   309.802654     4.282986    24.270254
          59      7   308.374992     2.855324    25.697916
          60      7   309.802654     4.282986    27.125578
          61      7   308.374992     2.855324    28.553240
          62      7   309.802654     4.282986    29.980902
          63      7   308.374992     2.855324    31.408564
          64      7   309.802654     4.282986    32.836226
          65      7   308.374992     2.855324    34.263888
          66      7   309.802654     4.282986    35.691550
          67      7   308.374992     2.855324    37.119212
          68      7   309.802654     4.282986    38.546874
          69      7   308.374992     2.855324    39.974536
          70      7   309.802654     4.282986    41.402198
          71      7   308.374992     2.855324    42.829860
          72      7   309.802654     4.282986    44.257522
          73      7   308.374992     2.855324    45.685184
          74      7   309.802654     4.282986    47.112846
          75      7   308.374992     2.855324    48.540508
          76      7   309.802654     4.282986    49.968170
          77      7   308.374992     2.855324    51.395832
          78      7   309.802654     4.282986    52.823494
          79      7   308.374992     2.855324    54.251156
          80      7   309.802654     4.282986    55.678818
          81      7   308.374992     5.710648     0.000000
          82      7   309.802654     7.138310     1.427662
          83      7   308.374992     5.710648     2.855324
          84      7   309.802654     7.138310     4.282986
          85      7   308.374992     5.710648     5.710648
          86      7   309.802654     7.138310     7.138310
          87      7   308.374992     5.710648     8.565972
          88      7   309.802654     7.138310     9.993634
          89      7   308.374992     5.710648    11.421296
          90      7   309.802654     7.138310    12.848958
          91      7   308.374992     5.710648    14.276620
          92      7   309.802654     7.138310    15.704282
          93      7   308.374992     5.710648    17.131944
          94      7   309.802654     7.138310    18.559606
          95      7   308.374992     5.710648    19.987268
          96      7   309.802654     7.138310    21.414930
          97      7   308.374992     5.710648    22.842592
          98      7   309.802654     7.138310    24.270254
          99      7   308.374992     5.710648    25.697916
         100      7   309.802654     7.138310    27.125578
         101      7   308.374992     5.710648    28.553240
         102      7   309.802654     7.138310    29.980902
         103      7   308.374992     5.710648    31.408564
         104      7   309.802654     7.138310    32.836226
         105      7   308.374992     5.710648    34.263888
         106      7   309.802654     7.138310    35.691550
         107      7   308.374992     5.710648    37.119212
         108      7   309.802654     7.138310    38.546874
         109      7   308.374992     5.710648    39.974536
         110      7   309.802654     7.138310    41.402198
         111      7   308.374992     5.710648    42.829860
         112      7   309.802654     7.138310    44.257522
         113      7   308.374992     5.710648    45.685184
         114      7   309.802654     7.138310    47.112846
         115      7   308.374992     5.710648    48.540508
         116      7   309.802654     7.138310    49.968170
         117      7   308.374992     5.710648    51.395832
         118      7   309.802654     7.138310    52.823494
         119      7   308.374992     5.710648    54.251156
         120      7   309.802654     7.138310    55.678818
         121      7   308.374992     8.565972     0.000000
         122      7   309.802654     9.993634     1.427662
         123      7   308.374992     8.565972     2.855324
         124      7   309.802654     9.993634     4.282986
         125      7   308.374992     8.565972     5.710648
         126      7   309.802654     9.993634     7.138310
         127      7   308.374992     8.565972     8.565972
         128      7   309.802654     9.993634     9.993634
         129      7   308.374992     8.565972    11.421296
         130      7   309.802654     9.993634    12.848958
         131      7   308.374992     8.565972    14.276620
         132      7   309.802654     9.993634    15.704282
         133      7   308.374992     8.565972    17.131944
         134      7   309.802654     9.993634    18.559606
         135      7   308.374992     8.565972    19.987268
         136      7   309.802654     9.993634    21.414930
         137      7   308.374992     8.565972    22.842592
         138      7   309.802654     9.993634    24.270254
         139      7   308.374992     8.565972    25.697916
         140      7   309.802654     9.993634    27.125578
         141      7   308.374992     8.565972    28.553240
         142      7   309.802654     9.993634    29.980902
         143      7   308.374992     8.565972    31.408564
         144      7   309.802654     9.993634    32.836226
         145      7   308.374992     8.565972    34.263888
         146      7   309.802654     9.993634    35.691550
         147      7   308.374992     8.565972    37.119212
         148      7   309.802654     9.993634    38.546874
         149      7   308.374992     8.565972    39.974536
         150      7   309.802654     9.993634    41.402198
         151      7   308.374992     8.565972    42.829860
         152      7   309.802654     9.993634    44.257522
         153      7   308.374992     8.565972    45.685184
         154      7   309.802654     9.993634    47.112846
         155      7   308.374992     8.565972    48.540508
         156      7   309.802654     9.993634    49.968170
         157      7   308.374992     8.565972    51.395832
         158      7   309.802654     9.993634    52.823494
         159      7   308.374992     8.565972    54.251156
         160      7   309.802654     9.993634    55.678818
         161      7   308.374992    11.421296     0.000000
         162      7   309.802654    12.848958     1.427662
         163      7   308.374992    11.421296     2.855324
         164      7   309.802654    12.848958     4.282986
         165      7   308.374992    11.421296     5.710648
         166      7   309.802654    12.848958     7.138310
         167      7   308.374992    11.421296     8.565972
         168      7   309.802654    12.848958     9.993634
         169      7   308.374992    11.421296    11.421296
         170      7   309.802654    12.848958    12.848958
         171      7   308.374992    11.421296    14.276620
         172      7   309.802654    12.848958    15.704282
         173      7   308.374992    11.421296    17.131944
         174      7   309.802654    12.848958    18.559606
         175      7   308.374992    11.421296    19.987268
         176      7   309.802654    12.848958    21.414930
         177      7   308.374992    11.421296    22.842592
         178      7   309.802654    12.848958    24.270254
         179      7   308.374992    11.421296    25.697916
         180      7   309.802654    12.848958    27.125578
         181      7   308.374992    11.421296    28.553240
         182      7   309.802654    12.848958    29.980902
         183      7   308.374992    11.421296    31.408564
         184      7   309.802654    12.848958    32.836226
         185      7   308.374992    11.421296    34.263888
         186      7   309.802654    12.848958    35.691550
         187      7   308.374992    11.421296    37.119212
         188      7   309.802654    12.848958    38.546874
         189      7   308.374992    11.421296    39.974536
         190      7   309.802654    12.848958    41.402198
         191      7   308.374992    11.421296    42.829860
         192      7   309.802654    12.848958    44.257522
         193      7   308.374992    11.421296    45.685184
         194      7   309.802654    12.848958    47.112846
         195      7   308.374992    11.421296    48.540508
         196      7   309.802654    12.848958    49.968170
         197      7   308.374992    11.421296    51.395832
         198      7   309.802654    12.848958    52.823494
         199      7   308.374992    11.421296    54.251156
         200      7   309.802654    12.848958    55.678818
         201      7   308.374992    14.276620     0.000000
         202      7   309.802654    15.704282     1.427662
         203      7   308.374992    14.276620     2.855324
         204      7   309.802654    15.704282     4.282986
         205      7   308.374992    14.276620     5.710648
         206      7   309.802654    15.704282     7.138310
         207      7   308.374992    14.276620     8.565972
         208      7   309.802654    15.704282     9.993634
         209      7   308.374992    14.276620    11.421296
         210      7   309.802654    15.704282    12.848958
         211      7   308.374992    14.276620    14.276620
         212      7   309.802654    15.704282    15.704282
         213      7   308.374992    14.276620    17.131944
         214      7   309.802654    15.704282    18.559606
         215      7   308.374992    14.276620    19.987268
         216      7   309.802654    15.704282    21.414930
         217      7   308.374992    14.276620    22.842592
         218      7   309.802654    15.704282    24.270254
         219      7   308.374992    14.276620    25.697916
         220      7   309.802654    15.704282    27.125578
         221      7   308.374992    14.276620    28.553240
         222      7   309.802654    15.704282    29.980902
         223      7   308.374992    14.276620    31.408564
         224      7   309.802654    15.704282    32.836226
         225      7   308.374992    14.276620    34.263888
         226      7   309.802654    15.704282    35.691550
         227      7   308.374992    14.276620    37.119212
         228      7   309.802654    15.704282    38.546874
         229      7   308.374992    14.276620    39.974536
         230      7   309.802654    15.704282    41.402198
         231      7   308.374992    14.276620    42.829860
         232      7   309.802654    15.704282    44.257522
         233      7   308.374992    14.276620    45.685184
         234      7   309.802654    15.704282    47.112846
         235      7   308.374992    14.276620    48.540508
         236      7   309.802654    15.704282    49.968170
         237      7   308.374992    14.276620    51.395832
         238      7   309.802654    15.704282    52.823494
         239      7   308.374992    14.276620    54.251156
         240      7   309.802654    15.704282    55.678818
         241      7   308.374992    17.131944     0.000000
         242      7   309.802654    18.559606     1.427662
         243      7   308.374992    17.131944     2.855324
         244      7   309.802654    18.559606     4.282986
         245      7   308.374992    17.131944     5.710648
         246      7   309.802654    18.559606     7.138310
         247      7   308.374992    17.131944     8.565972
         248      7   309.802654    18.559606     9.993634
         249      7   308.374992    17.131944    11.421296
         250      7   309.802654    18.559606    12.848958
         251      7   308.374992    17.131944    14.276620
         252      7   309.802654    18.559606    15.704282
         253      7   308.374992    17.131944    17.131944
         254      7   309.802654    18.559606    18.559606
         255      7   308.374992    17.131944    19.987268
         256      7   309.802654    18.559606    21.414930
         257      7   308.374992    17.131944    22.842592
         258      7   309.802654    18.559606    24.270254
         259      7   308.374992    17.131944    25.697916
         260      7   309.802654    18.559606    27.125578
         261      7   308.374992    17.131944    28.553240
         262      7   309.802654    18.559606    29.980902
         263      7   308.374992    17.131944    31.408564
         264      7   309.802654    18.559606    32.836226
         265      7   308.374992    17.131944    34.263888
         266      7   309.802654    18.559606    35.691550
         267      7   308.374992    17.131944    37.119212
         268      7   309.802654    18.559606    38.546874
         269      7   308.374992    17.131944    39.974536
         270      7   309.802654    18.559606    41.402198
         271      7   308.374992    17.131944    42.829860
         272      7   309.802654    18.559606    44.257522
         273      7   308.374992    17.131944    45.685184
         274      7   309.802654    18.559606    47.112846
         275      7   308.374992    17.131944    48.540508
         276      7   309.802654    18.559606    49.968170
         277      7   308.374992    17.131944    51.395832
         278      7   309.802654    18.559606    52.823494
         279      7   308.374992    17.131944    54.251156
         280      7   309.802654    18.559606    55.678818
         281      7   308.374992    19.987268     0.000000
         282      7   309.802654    21.414930     1.427662
         283      7   308.374992    19.987268     2.855324
         284      7   309.802654    21.414930     4.282986
         285      7   308.374992    19.987268     5.710648
         286      7   309.802654    21.414930     7.138310
         287      7   308.374992    19.987268     8.565972
         288      7   309.802654    21.414930     9.993634
         289      7   308.374992    19.987268    11.421296
         290      7   309.802654    21.414930    12.848958
         291      7   308.374992    19.987268    14.276620
         292      7   309.802654    21.414930    15.704282
         293      7   308.374992    19.987268    17.131944
         294      7   309.802654    21.414930    18.559606
         295      7   308.374992    19.987268    19.987268
         296      7   309.802654    21.414930    21.414930
         297      7   308.374992    19.987268    22.842592
         298      7   309.802654    21.414930    24.270254
         299      7   308.374992    19.987268    25.697916
         300      7   309.802654    21.414930    27.125578
         301      7   308.374992    19.987268    28.553240
         302      7   309.802654    21.414930    29.980902
         303      7   308.374992    19.987268    31.408564
         304      7   309.802654    21.414930    32.836226
         305      7   308.374992    19.987268    34.263888
         306      7   309.802654    21.414930    35.691550
         307      7   308.374992    19.987268    37.119212
         308      7   309.802654    21.414930    38.546874
         309      7   308.374992    19.987268    39.974536
         310      7   309.802654    21.414930    41.402198
         311      7   308.374992    19.987268    42.829860
         312      7   309.802654    21.414930    44.257522
         313      7   308.374992    19.987268    45.685184
         314      7   309.802654    21.414930    47.112846
         315      7   308.374992    19.987268    48.540508
         316      7   309.802654    21.414930    49.968170
         317      7   308.374992    19.987268    51.395832
         318      7   309.802654    21.414930    52.823494
         319      7   308.374992    19.987268    54.251156
         320      7   309.802654    21.414930    55.678818
         321      7   308.374992    22.842592     0.000000
         322      7   309.802654    24.270254     1.427662
         323      7   308.374992    22.842592     2.855324
         324      7   309.802654    24.270254     4.282986
         325      7   308.374992    22.842592     5.710648
         326      7   309.802654    24.270254     7.138310
         327      7   308.374992    22.842592     8.565972
         328      7   309.802654    24.270254     9.993634
         329      7   308.374992    22.842592    11.421296
         330      7   309.802654    24.270254    12.848958
         331      7   308.374992    22.842592    14.276620
         332      7   309.802654    24.270254    15.704282
         333      7   308.374992    22.842592    17.131944
         334      7   309.802654    24.270254    18.559606
         335      7   308.374992    22.842592    19.987268
         336      7   309.802654    24.270254    21.414930
         337      7   308.374992    22.842592    22.842592
         338      7   309.802654    24.270254    24.270254
         339      7   308.374992    22.842592    25.697916
         340      7   309.802654    24.270254    27.125578
         341      7   308.374992    22.842592    28.553240
         342      7   309.802654    24.270254    29.980902
         343      7   308.374992    22.842592    31.408564
         344      7   309.802654    24.270254    32.836226
         345      7   308.374992    22.842592    34.263888
         346      7   309.802654    24.270254    35.691550
         347      7   308.374992    22.842592    37.119212
         348      7   309.802654    24.270254    38.546874
         349      7   308.374992    22.842592    39.974536
         350      7   309.802654    24.270254    41.402198
         351      7   308.374992    22.842592    42.829860
         352      7   309.802654    24.270254    44.257522
         353      7   308.374992    22.842592    45.685184
         354      7   309.802654    24.270254    47.112846
         355      7   308.374992    22.842592    48.540508
         356      7   309.802654    24.270254    49.968170
         357      7   308.374992    22.842592    51.395832
         358      7   309.802654    24.270254    52.823494
         359      7   308.374992    22.842592    54.251156
         360      7   309.802654    24.270254    55.678818
         361      7   308.374992    25.697916     0.000000
         362      7   309.802654    27.125578     1.427662
         363      7   308.374992    25.697916     2.855324
         364      7   309.802654    27.125578     4.282986
         365      7   308.374992    25.697916     5.710648
         366      7   309.802654    27.125578     7.138310
         367      7   308.374992    25.697916     8.565972
         368      7   309.802654    27.125578     9.993634
         369      7   308.374992    25.697916    11.421296
         370      7   309.802654    27.125578    12.848958
         371      7   308.374992    25.697916    14.276620
         372      7   309.802654    27.125578    15.704282
         373      7   308.374992    25.697916    17.131944
         374      7   309.802654    27.125578    18.559606
         375      7   308.374992    25.697916    19.987268
         376      7   309.802654    27.125578    21.414930
         377      7   308.374992    25.697916    22.842592
         378      7   309.802654    27.125578    24.270254
         379      7   308.374992    25.697916    25.697916
         380      7   309.802654    27.125578    27.125578
         381      7   308.374992    25.697916    28.553240
         382      7   309.802654    27.125578    29.980902
         383      7   308.374992    25.697916    31.408564
         384      7   309.802654    27.125578    32.836226
         385      7   308.374992    25.697916    34.263888
         386      7   309.802654    27.125578    35.691550
         387      7   308.374992    25.697916    37.119212
         388      7   309.802654    27.125578    38.546874
         389      7   308.374992    25.697916    39.974536
         390      7   309.802654    27.125578    41.402198
         391      7   308.374992    25.697916    42.829860
         392      7   309.802654    27.125578    44.257522
         393      7   308.374992    25.697916    45.685184
         394      7   309.802654    27.125578    47.112846
         395      7   308.374992    25.697916    48.540508
         396      7   309.802654    27.125578    49.968170
         397      7   308.374992    25.697916    51.395832
         398      7   309.802654    27.125578    52.823494
         399      7   308.374992    25.697916    54.251156
         400      7   309.802654    27.125578    55.678818
         401      7   308.374992    28.553240     0.000000
         402      7   309.802654    29.980902     1.427662
         403      7   308.374992    28.553240     2.855324
         404      7   309.802654    29.980902     4.282986
         405      7   308.374992    28.553240     5.710648
         406      7   309.802654    29.980902     7.138310
         407      7   308.374992    28.553240     8.565972
         408      7   309.802654    29.980902     9.993634
         409      7   308.374992    28.553240    11.421296
         410      7   309.802654    29.980902    12.848958
         411      7   308.374992    28.553240    14.276620
         412      7   309.802654    29.980902    15.704282
         413      7   308.374992    28.553240    17.131944
         414      7   309.802654    29.980902    18.559606
         415      7   308.374992    28.553240    19.987268
         416      7   309.802654    29.980902    21.414930
         417      7   308.374992    28.553240    22.842592
         418      7   309.802654    29.980902    24.270254
         419      7   308.374992    28.553240    25.697916
         420      7   309.802654    29.980902    27.125578
         421      7   308.374992    28.553240    28.553240
         422      7   309.802654    29.980902    29.980902
         423      7   308.374992    28.553240    31.408564
         424      7   309.802654    29.980902    32.836226
         425      7   308.374992    28.553240    34.263888
         426      7   309.802654    29.980902    35.691550
         427      7   308.374992    28.553240    37.119212
         428      7   309.802654    29.980902    38.546874
         429      7   308.374992    28.553240    39.974536
         430      7   309.802654    29.980902    41.402198
         431      7   308.374992    28.553240    42.829860
         432      7   309.802654    29.980902    44.257522
         433      7   308.374992    28.553240    45.685184
         434      7   309.802654    29.980902    47.112846
         435      7   308.374992    28.553240    48.540508
         436      7   309.802654    29.980902    49.968170
         437      7   308.374992    28.553240    51.395832
         438      7   309.802654    29.980902    52.823494
         439      7   308.374992    28.553240    54.251156
         440      7   309.802654    29.980902    55.678818
         441      7   308.374992    31.408564     0.000000
         442      7   309.802654    32.836226     1.427662
         443      7   308.374992    31.408564     2.855324
         444      7   309.802654    32.836226     4.282986
         445      7   308.374992    31.408564     5.710648
         446      7   309.802654    32.836226     7.138310
         447      7   308.374992    31.408564     8.565972
         448      7   309.802654    32.836226     9.993634
         449      7   308.374992    31.408564    11.421296
         450      7   309.802654    32.836226    12.848958
         451      7   308.374992    31.408564    14.276620
         452      7   309.802654    32.836226    15.704282
         453      7   308.374992    31.408564    17.131944
         454      7   309.802654    32.836226    18.559606
         455      7   308.374992    31.408564    19.987268
         456      7   309.802654    32.836226    21.414930
         457      7   308.374992    31.408564    22.842592
         458      7   309.802654    32.836226    24.270254
         459      7   308.374992    31.408564    25.697916
         460      7   309.802654    32.836226    27.125578
         461      7   308.374992    31.408564    28.553240
         462      7   309.802654    32.836226    29.980902
         463      7   308.374992    31.408564    31.408564
         464      7   309.802654    32.836226    32.836226
         465      7   308.374992    31.408564    34.263888
         466      7   309.802654    32.836226    35.691550
         467      7   308.374992    31.408564    37.119212
         468      7   309.802654    32.836226    38.546874
         469      7   308.374992    31.408564    39.974536
         470      7   309.802654    32.836226    41.402198
         471      7   308.374992    31.408564    42.829860
         472      7   309.802654    32.836226    44.257522
         473      7   308.374992    31.408564    45.685184
         474      7   309.802654    32.836226    47.112846
         475      7   308.374992    31.408564    48.540508
         476      7   309.802654    32.836226    49.968170
         477      7   308.374992    31.408564    51.395832
         478      7   309.802654    32.836226    52.823494
         479      7   308.374992    31.408564    54.251156
         480      7   309.802654    32.836226    55.678818
         481      7   308.374992    34.263888     0.000000
         482      7   309.802654    35.691550     1.427662
         483      7   308.374992    34.263888     2.855324
         484      7   309.802654    35.691550     4.282986
         485      7   308.374992    34.263888     5.710648
         486      7   309.802654    35.691550     7.138310
         487      7   308.374992    34.263888     8.565972
         488      7   309.802654    35.691550     9.993634
         489      7   308.374992    34.263888    11.421296
         490      7   309.802654    35.691550    12.848958
         491      7   308.374992    34.263888    14.276620
         492      7   309.802654    35.691550    15.704282
         493      7   308.374992    34.263888    17.131944
         494      7   309.802654    35.691550    18.559606
         495      7   308.374992    34.263888    19.987268
         496      7   309.802654    35.691550    21.414930
         497      7   308.374992    34.263888    22.842592
         498      7   309.802654    35.691550    24.270254
         499      7   308.374992    34.263888    25.697916
         500      7   309.802654    35.691550    27.125578
         501      7   308.374992    34.263888    28.553240
         502      7   309.802654    35.691550    29.980902
         503      7   308.374992    34.263888    31.408564
         504      7   309.802654    35.691550    32.836226
         505      7   308.374992    34.263888    34.263888
         506      7   309.802654    35.691550    35.691550