LAMMPS (29 Sep 2021 - Update 1)
KOKKOS mode is enabled (../kokkos.cpp:97)
  will use up to 2 GPU(s) per node
  using 1 OpenMP thread(s) per MPI task
Reading data file ...
  orthogonal box = (2.8553240 0.0000000 0.0000000) to (434.00925 57.106480 57.106480)
  16 by 2 by 2 MPI processor grid
  reading atoms ...
  120800 atoms
  read_data CPU = 0.241 seconds
WARNING: Using 'neigh_modify every 1 delay 0 check yes' setting during minimization (../min.cpp:188)
Neighbor list info ...
  update every 1 steps, delay 0 steps, check yes
  max neighbors/atom: 2000, page size: 100000
  master list distance cutoff = 7.6
  ghost atom cutoff = 7.6
  binsize = 7.6, bins = 57 8 8
  1 neighbor lists, perpetual/occasional/extra = 1 0 0
  (1) pair eam/alloy/kk, perpetual
      attributes: full, newton off, kokkos_device
      pair build: full/bin/kk/device
      stencil: full/bin/3d
      bin: kk/device
Setting up cg/kk style minimization ...
  Unit style    : metal
  Current step  : 0
WARNING: Fixes cannot yet send exchange data in Kokkos communication, switching to classic exchange/border communication (../comm_kokkos.cpp:581)
Per MPI rank memory allocation (min/avg/max) = 2.461 | 2.484 | 2.508 Mbytes
Step Temp E_pair E_mol TotEng Press 
       0            0   -497990.16            0   -497990.16    1.1565062 
       1            0   -497990.16            0   -497990.16    1.1565062 
Loop time of 0.278084 on 64 procs for 1 steps with 120800 atoms

85.7% CPU use with 64 MPI tasks x 1 OpenMP threads

Minimization stats:
  Stopping criterion = energy tolerance
  Energy initial, next-to-last, final = 
     -497990.160168482  -497990.160168482  -497990.160168482
  Force two-norm initial, final = 2.5050826e-11 2.4526018e-11
  Force max component initial, final = 2.9474597e-13 2.9491264e-13
  Final line search alpha, max atom move = 1.0000000 2.9491264e-13
  Iterations, force evaluations = 1 2

MPI task timing breakdown:
Section |  min time  |  avg time  |  max time  |%varavg| %total
---------------------------------------------------------------
Pair    | 0.076775   | 0.1392     | 0.21834    |  12.9 | 50.06
Neigh   | 0          | 0          | 0          |   0.0 |  0.00
Comm    | 0.031488   | 0.099618   | 0.16736    |  17.9 | 35.82
Output  | 0          | 0          | 0          |   0.0 |  0.00
Modify  | 0          | 0          | 0          |   0.0 |  0.00
Other   |            | 0.03926    |            |       | 14.12

Nlocal:        1887.50 ave        1900 max        1800 min
Histogram: 8 0 0 0 0 0 0 0 0 56
Nghost:        5207.25 ave        5415 max        5059 min
Histogram: 32 0 0 0 0 0 0 24 0 8
Neighs:         0.00000 ave           0 max           0 min
Histogram: 64 0 0 0 0 0 0 0 0 0
FullNghs:      317100.0 ave      319200 max      302400 min
Histogram: 8 0 0 0 0 0 0 0 0 56

Total # of neighbors = 20294400
Ave neighs/atom = 168.00000
Neighbor list builds = 0
Dangerous builds = 0
System init for write_data ...
Initial Length, L0: 431.153924
Setting up Verlet run ...
  Unit style    : metal
  Current step  : 0
  Time step     : 0.001
Per MPI rank memory allocation (min/avg/max) = 2.017 | 2.033 | 2.050 Mbytes
Step v_strain Temp v_p2 v_p3 v_p4 KinEng PotEng Press 
       0            0            0 -0.00011565062 -0.00011565062 -0.00011565062            0   -497990.16    1.1565062 
     500        0.005 8.208948e-21    1.2250296   0.71916383   0.71916383 1.2817859e-19   -497963.33   -8877.8574 
Loop time of 32.2966 on 64 procs for 500 steps with 120800 atoms

Performance: 1.338 ns/day, 17.943 hours/ns, 15.481 timesteps/s
82.3% CPU use with 64 MPI tasks x 1 OpenMP threads

MPI task timing breakdown:
Section |  min time  |  avg time  |  max time  |%varavg| %total
---------------------------------------------------------------
Pair    | 14.833     | 16.316     | 17.359     |  13.3 | 50.52
Neigh   | 0.018303   | 0.026838   | 0.042601   |   3.5 |  0.08
Comm    | 5.8692     | 6.6424     | 6.9847     |   9.3 | 20.57
Output  | 0.0046637  | 0.0049848  | 0.0049954  |   0.1 |  0.02
Modify  | 5.9897     | 7.4401     | 9.3504     |  26.3 | 23.04
Other   |            | 1.866      |            |       |  5.78

Nlocal:        1887.50 ave        1914 max        1800 min
Histogram: 8 0 0 0 0 0 0 1 48 7
Nghost:        5207.25 ave        5415 max        5052 min
Histogram: 19 13 0 0 0 0 0 24 0 8
Neighs:         0.00000 ave           0 max           0 min
Histogram: 64 0 0 0 0 0 0 0 0 0
FullNghs:      317100.0 ave      321552 max      302400 min
Histogram: 8 0 0 0 0 0 0 1 48 7

Total # of neighbors = 20294400
Ave neighs/atom = 168.00000
Neighbor list builds = 2
Dangerous builds = 0
All done
Total wall time: 0:00:45
