LAMMPS (3 Mar 2020)
Reading data file ...
  orthogonal box = (-1427.66 0 0) to (9996.49 285.532 285.532)
  160 by 4 by 4 MPI processor grid
  reading atoms ...
  60020000 atoms
  read_data CPU = 46.3131 secs
20000 atoms in group source
20000 atoms in group detector
10000 atoms in group edge
10000 atoms in group edge_buf
19980000 atoms in group buffer
WARNING: Using 'neigh_modify every 1 delay 0 check yes' setting during minimization (../min.cpp:190)
Neighbor list info ...
  update every 1 steps, delay 0 steps, check yes
  max neighbors/atom: 2000, page size: 100000
  master list distance cutoff = 7.6
  ghost atom cutoff = 7.6
  binsize = 3.8, bins = 3007 76 76
  1 neighbor lists, perpetual/occasional/extra = 1 0 0
  (1) pair eam/alloy, perpetual
      attributes: half, newton on
      pair build: half/bin/atomonly/newton
      stencil: half/bin/3d/newton
      bin: standard
Setting up cg style minimization ...
  Unit style    : metal
  Current step  : 0
Per MPI rank memory allocation (min/avg/max) = 8.251 | 22.23 | 27.22 Mbytes
Step Temp E_pair E_mol TotEng Press 
       0            0 -2.4725337e+08            0 -2.4725337e+08    40.637323 
       1            0 -2.4725344e+08            0 -2.4725344e+08    37.505449 
       2            0 -2.4725345e+08            0 -2.4725345e+08    36.475318 
       3            0 -2.4725345e+08            0 -2.4725345e+08    37.366585 
       4            0 -2.4725346e+08            0 -2.4725346e+08    37.789881 
       5            0 -2.4725347e+08            0 -2.4725347e+08    37.581987 
       6            0 -2.4725347e+08            0 -2.4725347e+08    37.758398 
       7            0 -2.4725347e+08            0 -2.4725347e+08    38.181789 
       8            0 -2.4725348e+08            0 -2.4725348e+08    38.541364 
       9            0 -2.4725349e+08            0 -2.4725349e+08    38.981229 
      10            0 -2.4725349e+08            0 -2.4725349e+08     39.37657 
      11            0 -2.4725349e+08            0 -2.4725349e+08    39.649402 
      12            0 -2.472535e+08            0 -2.472535e+08    39.918119 
      13            0 -2.472535e+08            0 -2.472535e+08    40.241665 
      14            0 -2.4725351e+08            0 -2.4725351e+08    40.500983 
      15            0 -2.4725351e+08            0 -2.4725351e+08      40.7982 
      16            0 -2.4725351e+08            0 -2.4725351e+08    41.195758 
      17            0 -2.4725352e+08            0 -2.4725352e+08    41.502532 
      18            0 -2.4725352e+08            0 -2.4725352e+08    41.748635 
      19            0 -2.4725353e+08            0 -2.4725353e+08    42.027765 
      20            0 -2.4725353e+08            0 -2.4725353e+08    42.296286 
      21            0 -2.4725353e+08            0 -2.4725353e+08    42.574568 
      22            0 -2.4725354e+08            0 -2.4725354e+08    42.953906 
      23            0 -2.4725354e+08            0 -2.4725354e+08    43.432676 
      24            0 -2.4725355e+08            0 -2.4725355e+08    43.952586 
      25            0 -2.4725355e+08            0 -2.4725355e+08    44.642612 
      26            0 -2.4725356e+08            0 -2.4725356e+08    45.726929 
      27            0 -2.4725358e+08            0 -2.4725358e+08    47.109802 
      28            0 -2.4725359e+08            0 -2.4725359e+08    48.395754 
      29            0 -2.472536e+08            0 -2.472536e+08    49.612211 
      30            0 -2.4725361e+08            0 -2.4725361e+08    50.861298 
      31            0 -2.4725362e+08            0 -2.4725362e+08    52.034144 
      32            0 -2.4725363e+08            0 -2.4725363e+08    53.320414 
      33            0 -2.4725364e+08            0 -2.4725364e+08    54.628899 
      34            0 -2.4725365e+08            0 -2.4725365e+08    55.688016 
      35            0 -2.4725367e+08            0 -2.4725367e+08    56.909202 
      36            0 -2.4725368e+08            0 -2.4725368e+08    57.983822 
      37            0 -2.4725369e+08            0 -2.4725369e+08    58.845853 
      38            0 -2.4725371e+08            0 -2.4725371e+08    59.669021 
      39            0 -2.4725372e+08            0 -2.4725372e+08    60.328345 
      40            0 -2.4725374e+08            0 -2.4725374e+08     60.94902 
      41            0 -2.4725375e+08            0 -2.4725375e+08    61.485087 
      42            0 -2.4725377e+08            0 -2.4725377e+08    61.991411 
      43            0 -2.4725379e+08            0 -2.4725379e+08    62.460351 
      44            0 -2.472538e+08            0 -2.472538e+08    62.891437 
      45            0 -2.4725382e+08            0 -2.4725382e+08    63.288781 
      46            0 -2.4725384e+08            0 -2.4725384e+08    63.632163 
      47            0 -2.4725385e+08            0 -2.4725385e+08    63.940276 
      48            0 -2.4725387e+08            0 -2.4725387e+08    64.292609 
      49            0 -2.4725389e+08            0 -2.4725389e+08    64.683268 
      50            0 -2.4725391e+08            0 -2.4725391e+08    65.095898 
      51            0 -2.4725393e+08            0 -2.4725393e+08    65.563229 
      52            0 -2.4725396e+08            0 -2.4725396e+08    66.034634 
      53            0 -2.4725398e+08            0 -2.4725398e+08    66.467938 
      54            0 -2.47254e+08            0 -2.47254e+08    66.883063 
      55            0 -2.4725402e+08            0 -2.4725402e+08    67.262855 
      56            0 -2.4725405e+08            0 -2.4725405e+08    67.578598 
      57            0 -2.4725407e+08            0 -2.4725407e+08    67.862897 
      58            0 -2.472541e+08            0 -2.472541e+08    68.164482 
      59            0 -2.4725412e+08            0 -2.4725412e+08    68.462468 
      60            0 -2.4725413e+08            0 -2.4725413e+08    68.733295 
      61            0 -2.4725415e+08            0 -2.4725415e+08    68.996308 
      62            0 -2.4725417e+08            0 -2.4725417e+08     69.21403 
      63            0 -2.4725419e+08            0 -2.4725419e+08    69.407425 
      64            0 -2.472542e+08            0 -2.472542e+08    69.633552 
      65            0 -2.4725422e+08            0 -2.4725422e+08    69.924462 
      66            0 -2.4725423e+08            0 -2.4725423e+08    70.155541 
      67            0 -2.4725424e+08            0 -2.4725424e+08    70.290146 
      68            0 -2.4725425e+08            0 -2.4725425e+08    70.402668 
      69            0 -2.4725426e+08            0 -2.4725426e+08    70.508504 
      70            0 -2.4725428e+08            0 -2.4725428e+08    70.680853 
      71            0 -2.4725429e+08            0 -2.4725429e+08    70.827926 
      72            0 -2.472543e+08            0 -2.472543e+08    71.031247 
      73            0 -2.4725432e+08            0 -2.4725432e+08    71.201262 
      74            0 -2.4725433e+08            0 -2.4725433e+08    71.268397 
      75            0 -2.4725435e+08            0 -2.4725435e+08    71.332638 
      76            0 -2.4725436e+08            0 -2.4725436e+08    71.445477 
      77            0 -2.4725438e+08            0 -2.4725438e+08    71.576094 
      78            0 -2.4725439e+08            0 -2.4725439e+08    71.657732 
      79            0 -2.472544e+08            0 -2.472544e+08    71.578269 
      80            0 -2.4725442e+08            0 -2.4725442e+08    71.472201 
      81            0 -2.4725443e+08            0 -2.4725443e+08    71.500439 
      82            0 -2.4725444e+08            0 -2.4725444e+08    71.530368 
      83            0 -2.4725445e+08            0 -2.4725445e+08    71.491233 
      84            0 -2.4725447e+08            0 -2.4725447e+08    71.407091 
      85            0 -2.4725448e+08            0 -2.4725448e+08    71.346934 
      86            0 -2.4725449e+08            0 -2.4725449e+08    71.341133 
      87            0 -2.472545e+08            0 -2.472545e+08    71.347763 
      88            0 -2.4725451e+08            0 -2.4725451e+08    71.351134 
      89            0 -2.4725452e+08            0 -2.4725452e+08    71.345567 
      90            0 -2.4725452e+08            0 -2.4725452e+08    71.338531 
      91            0 -2.4725453e+08            0 -2.4725453e+08    71.352287 
      92            0 -2.4725454e+08            0 -2.4725454e+08      71.3549 
      93            0 -2.4725455e+08            0 -2.4725455e+08    71.343157 
      94            0 -2.4725455e+08            0 -2.4725455e+08    71.324791 
      95            0 -2.4725456e+08            0 -2.4725456e+08     71.33312 
      96            0 -2.4725456e+08            0 -2.4725456e+08    71.318544 
      97            0 -2.4725457e+08            0 -2.4725457e+08    71.289968 
      98            0 -2.4725457e+08            0 -2.4725457e+08     71.26833 
      99            0 -2.4725457e+08            0 -2.4725457e+08    71.271515 
     100            0 -2.4725458e+08            0 -2.4725458e+08    71.292727 
     101            0 -2.4725458e+08            0 -2.4725458e+08    71.297164 
     102            0 -2.4725458e+08            0 -2.4725458e+08    71.274011 
     103            0 -2.4725459e+08            0 -2.4725459e+08    71.263036 
     104            0 -2.4725459e+08            0 -2.4725459e+08    71.281529 
     105            0 -2.4725459e+08            0 -2.4725459e+08     71.31616 
     106            0 -2.472546e+08            0 -2.472546e+08    71.350438 
     107            0 -2.472546e+08            0 -2.472546e+08    71.381333 
     108            0 -2.472546e+08            0 -2.472546e+08    71.419303 
     109            0 -2.472546e+08            0 -2.472546e+08    71.433898 
     110            0 -2.4725461e+08            0 -2.4725461e+08    71.449059 
     111            0 -2.4725461e+08            0 -2.4725461e+08    71.506155 
     112            0 -2.4725461e+08            0 -2.4725461e+08    71.613333 
     113            0 -2.4725462e+08            0 -2.4725462e+08    71.714698 
     114            0 -2.4725462e+08            0 -2.4725462e+08    71.765586 
     115            0 -2.4725462e+08            0 -2.4725462e+08    71.783807 
     116            0 -2.4725463e+08            0 -2.4725463e+08    71.836802 
     117            0 -2.4725463e+08            0 -2.4725463e+08     71.94321 
     118            0 -2.4725464e+08            0 -2.4725464e+08    72.045376 
     119            0 -2.4725464e+08            0 -2.4725464e+08    72.099887 
     120            0 -2.4725464e+08            0 -2.4725464e+08    72.101656 
     121            0 -2.4725465e+08            0 -2.4725465e+08    72.130601 
     122            0 -2.4725466e+08            0 -2.4725466e+08    72.210972 
     123            0 -2.4725466e+08            0 -2.4725466e+08    72.297104 
     124            0 -2.4725466e+08            0 -2.4725466e+08    72.343062 
     125            0 -2.4725467e+08            0 -2.4725467e+08    72.353611 
     126            0 -2.4725467e+08            0 -2.4725467e+08    72.364263 
     127            0 -2.4725467e+08            0 -2.4725467e+08    72.388569 
     128            0 -2.4725468e+08            0 -2.4725468e+08    72.418151 
     129            0 -2.4725468e+08            0 -2.4725468e+08    72.439798 
     130            0 -2.4725468e+08            0 -2.4725468e+08    72.449617 
     131            0 -2.4725468e+08            0 -2.4725468e+08    72.457492 
     132            0 -2.4725469e+08            0 -2.4725469e+08    72.466734 
     133            0 -2.4725469e+08            0 -2.4725469e+08    72.464478 
     134            0 -2.4725469e+08            0 -2.4725469e+08    72.451222 
     135            0 -2.4725469e+08            0 -2.4725469e+08    72.434579 
     136            0 -2.4725469e+08            0 -2.4725469e+08    72.418505 
     137            0 -2.4725469e+08            0 -2.4725469e+08    72.403148 
     138            0 -2.472547e+08            0 -2.472547e+08    72.383166 
     139            0 -2.472547e+08            0 -2.472547e+08    72.357698 
     140            0 -2.472547e+08            0 -2.472547e+08    72.324945 
     141            0 -2.472547e+08            0 -2.472547e+08     72.29386 
     142            0 -2.472547e+08            0 -2.472547e+08    72.261427 
     143            0 -2.472547e+08            0 -2.472547e+08    72.227761 
     144            0 -2.4725471e+08            0 -2.4725471e+08     72.19811 
     145            0 -2.4725471e+08            0 -2.4725471e+08    72.170189 
     146            0 -2.4725471e+08            0 -2.4725471e+08    72.151411 
     147            0 -2.4725471e+08            0 -2.4725471e+08    72.142054 
     148            0 -2.4725471e+08            0 -2.4725471e+08    72.129506 
     149            0 -2.4725472e+08            0 -2.4725472e+08    72.117061 
     150            0 -2.4725472e+08            0 -2.4725472e+08    72.112964 
     151            0 -2.4725472e+08            0 -2.4725472e+08    72.116564 
     152            0 -2.4725472e+08            0 -2.4725472e+08    72.123519 
     153            0 -2.4725473e+08            0 -2.4725473e+08    72.124589 
     154            0 -2.4725473e+08            0 -2.4725473e+08    72.114823 
     155            0 -2.4725473e+08            0 -2.4725473e+08    72.107772 
     156            0 -2.4725473e+08            0 -2.4725473e+08     72.12296 
     157            0 -2.4725474e+08            0 -2.4725474e+08     72.16601 
     158            0 -2.4725474e+08            0 -2.4725474e+08    72.211559 
     159            0 -2.4725474e+08            0 -2.4725474e+08    72.240763 
     160            0 -2.4725475e+08            0 -2.4725475e+08    72.253263 
     161            0 -2.4725475e+08            0 -2.4725475e+08    72.276554 
     162            0 -2.4725475e+08            0 -2.4725475e+08    72.328367 
     163            0 -2.4725475e+08            0 -2.4725475e+08     72.38516 
     164            0 -2.4725476e+08            0 -2.4725476e+08    72.421708 
     165            0 -2.4725476e+08            0 -2.4725476e+08    72.441577 
     166            0 -2.4725476e+08            0 -2.4725476e+08    72.467362 
     167            0 -2.4725476e+08            0 -2.4725476e+08    72.505986 
     168            0 -2.4725476e+08            0 -2.4725476e+08    72.535206 
     169            0 -2.4725476e+08            0 -2.4725476e+08    72.549121 
     170            0 -2.4725477e+08            0 -2.4725477e+08    72.556284 
     171            0 -2.4725477e+08            0 -2.4725477e+08    72.558048 
     172            0 -2.4725477e+08            0 -2.4725477e+08    72.548139 
     173            0 -2.4725477e+08            0 -2.4725477e+08     72.53196 
     174            0 -2.4725477e+08            0 -2.4725477e+08    72.521905 
     175            0 -2.4725477e+08            0 -2.4725477e+08    72.510334 
     176            0 -2.4725477e+08            0 -2.4725477e+08    72.477629 
     177            0 -2.4725477e+08            0 -2.4725477e+08    72.428121 
     178            0 -2.4725477e+08            0 -2.4725477e+08    72.393564 
     179            0 -2.4725478e+08            0 -2.4725478e+08    72.379569 
     180            0 -2.4725478e+08            0 -2.4725478e+08    72.360142 
     181            0 -2.4725478e+08            0 -2.4725478e+08    72.316892 
     182            0 -2.4725478e+08            0 -2.4725478e+08    72.267097 
     183            0 -2.4725478e+08            0 -2.4725478e+08    72.244064 
     184            0 -2.4725478e+08            0 -2.4725478e+08    72.235661 
     185            0 -2.4725478e+08            0 -2.4725478e+08    72.210295 
     186            0 -2.4725478e+08            0 -2.4725478e+08    72.168035 
     187            0 -2.4725479e+08            0 -2.4725479e+08    72.132866 
     188            0 -2.4725479e+08            0 -2.4725479e+08    72.125119 
     189            0 -2.4725479e+08            0 -2.4725479e+08    72.126447 
     190            0 -2.4725479e+08            0 -2.4725479e+08    72.119857 
     191            0 -2.4725479e+08            0 -2.4725479e+08    72.119276 
     192            0 -2.472548e+08            0 -2.472548e+08    72.147712 
     193            0 -2.472548e+08            0 -2.472548e+08    72.197705 
     194            0 -2.472548e+08            0 -2.472548e+08    72.242871 
     195            0 -2.472548e+08            0 -2.472548e+08    72.277422 
     196            0 -2.4725481e+08            0 -2.4725481e+08     72.32366 
     197            0 -2.4725481e+08            0 -2.4725481e+08    72.387459 
     198            0 -2.4725481e+08            0 -2.4725481e+08    72.465067 
     199            0 -2.4725481e+08            0 -2.4725481e+08    72.532565 
     200            0 -2.4725482e+08            0 -2.4725482e+08    72.588903 
     201            0 -2.4725482e+08            0 -2.4725482e+08    72.652137 
     202            0 -2.4725482e+08            0 -2.4725482e+08    72.728407 
     203            0 -2.4725483e+08            0 -2.4725483e+08     72.78016 
     204            0 -2.4725483e+08            0 -2.4725483e+08    72.852013 
     205            0 -2.4725483e+08            0 -2.4725483e+08    72.898521 
     206            0 -2.4725484e+08            0 -2.4725484e+08    72.955914 
     207            0 -2.4725484e+08            0 -2.4725484e+08    72.965896 
     208            0 -2.4725484e+08            0 -2.4725484e+08    72.978801 
     209            0 -2.4725485e+08            0 -2.4725485e+08    73.016285 
     210            0 -2.4725485e+08            0 -2.4725485e+08    73.045937 
     211            0 -2.4725485e+08            0 -2.4725485e+08    73.060366 
     212            0 -2.4725485e+08            0 -2.4725485e+08    73.069154 
     213            0 -2.4725486e+08            0 -2.4725486e+08    73.072659 
     214            0 -2.4725486e+08            0 -2.4725486e+08    73.067291 
     215            0 -2.4725486e+08            0 -2.4725486e+08     73.05971 
     216            0 -2.4725486e+08            0 -2.4725486e+08    73.071206 
     217            0 -2.4725487e+08            0 -2.4725487e+08    73.101203 
     218            0 -2.4725487e+08            0 -2.4725487e+08    73.122145 
     219            0 -2.4725487e+08            0 -2.4725487e+08    73.108523 
     220            0 -2.4725487e+08            0 -2.4725487e+08     73.09328 
     221            0 -2.4725487e+08            0 -2.4725487e+08    73.111064 
     222            0 -2.4725487e+08            0 -2.4725487e+08    73.151072 
     223            0 -2.4725487e+08            0 -2.4725487e+08    73.163239 
     224            0 -2.4725488e+08            0 -2.4725488e+08     73.13641 
     225            0 -2.4725488e+08            0 -2.4725488e+08    73.113283 
     226            0 -2.4725488e+08            0 -2.4725488e+08    73.126527 
     227            0 -2.4725488e+08            0 -2.4725488e+08     73.15505 
     228            0 -2.4725488e+08            0 -2.4725488e+08    73.152411 
     229            0 -2.4725488e+08            0 -2.4725488e+08    73.115467 
     230            0 -2.4725488e+08            0 -2.4725488e+08    73.086622 
     231            0 -2.4725488e+08            0 -2.4725488e+08    73.095045 
     232            0 -2.4725489e+08            0 -2.4725489e+08    73.121025 
     233            0 -2.4725489e+08            0 -2.4725489e+08    73.128061 
     234            0 -2.4725489e+08            0 -2.4725489e+08    73.117979 
     235            0 -2.4725489e+08            0 -2.4725489e+08    73.114756 
     236            0 -2.4725489e+08            0 -2.4725489e+08    73.130066 
     237            0 -2.4725489e+08            0 -2.4725489e+08     73.15841 
     238            0 -2.4725489e+08            0 -2.4725489e+08    73.181568 
     239            0 -2.4725489e+08            0 -2.4725489e+08    73.199179 
     240            0 -2.4725489e+08            0 -2.4725489e+08    73.216665 
     241            0 -2.472549e+08            0 -2.472549e+08    73.233992 
     242            0 -2.472549e+08            0 -2.472549e+08    73.254673 
     243            0 -2.472549e+08            0 -2.472549e+08    73.274391 
     244            0 -2.472549e+08            0 -2.472549e+08    73.292987 
     245            0 -2.472549e+08            0 -2.472549e+08    73.306249 
     246            0 -2.472549e+08            0 -2.472549e+08    73.315968 
     247            0 -2.472549e+08            0 -2.472549e+08    73.322416 
     248            0 -2.472549e+08            0 -2.472549e+08    73.324421 
     249            0 -2.472549e+08            0 -2.472549e+08    73.321428 
     250            0 -2.472549e+08            0 -2.472549e+08    73.317566 
     251            0 -2.472549e+08            0 -2.472549e+08    73.315659 
     252            0 -2.472549e+08            0 -2.472549e+08    73.312205 
     253            0 -2.472549e+08            0 -2.472549e+08    73.300914 
     254            0 -2.4725491e+08            0 -2.4725491e+08    73.283162 
     255            0 -2.4725491e+08            0 -2.4725491e+08    73.268111 
     256            0 -2.4725491e+08            0 -2.4725491e+08    73.261931 
     257            0 -2.4725491e+08            0 -2.4725491e+08    73.257189 
     258            0 -2.4725491e+08            0 -2.4725491e+08    73.246048 
     259            0 -2.4725491e+08            0 -2.4725491e+08     73.23249 
     260            0 -2.4725491e+08            0 -2.4725491e+08    73.223882 
     261            0 -2.4725491e+08            0 -2.4725491e+08    73.223046 
     262            0 -2.4725491e+08            0 -2.4725491e+08    73.222585 
     263            0 -2.4725491e+08            0 -2.4725491e+08    73.219029 
     264            0 -2.4725491e+08            0 -2.4725491e+08    73.216329 
     265            0 -2.4725491e+08            0 -2.4725491e+08    73.217759 
     266            0 -2.4725491e+08            0 -2.4725491e+08    73.220492 
     267            0 -2.4725491e+08            0 -2.4725491e+08    73.220659 
     268            0 -2.4725491e+08            0 -2.4725491e+08     73.22039 
     269            0 -2.4725491e+08            0 -2.4725491e+08    73.222669 
     270            0 -2.4725491e+08            0 -2.4725491e+08    73.225643 
     271            0 -2.4725491e+08            0 -2.4725491e+08    73.225201 
     272            0 -2.4725491e+08            0 -2.4725491e+08    73.222639 
     273            0 -2.4725492e+08            0 -2.4725492e+08    73.222846 
     274            0 -2.4725492e+08            0 -2.4725492e+08    73.226863 
     275            0 -2.4725492e+08            0 -2.4725492e+08     73.23061 
     276            0 -2.4725492e+08            0 -2.4725492e+08    73.229626 
     277            0 -2.4725492e+08            0 -2.4725492e+08    73.226105 
     278            0 -2.4725492e+08            0 -2.4725492e+08    73.225514 
     279            0 -2.4725492e+08            0 -2.4725492e+08    73.229175 
     280            0 -2.4725492e+08            0 -2.4725492e+08    73.233163 
     281            0 -2.4725492e+08            0 -2.4725492e+08     73.23512 
     282            0 -2.4725492e+08            0 -2.4725492e+08    73.236642 
     283            0 -2.4725492e+08            0 -2.4725492e+08    73.239507 
     284            0 -2.4725492e+08            0 -2.4725492e+08    73.244105 
     285            0 -2.4725492e+08            0 -2.4725492e+08    73.249357 
     286            0 -2.4725492e+08            0 -2.4725492e+08    73.256815 
     287            0 -2.4725492e+08            0 -2.4725492e+08    73.265159 
     288            0 -2.4725492e+08            0 -2.4725492e+08    73.271982 
     289            0 -2.4725492e+08            0 -2.4725492e+08    73.275458 
     290            0 -2.4725492e+08            0 -2.4725492e+08    73.280877 
     291            0 -2.4725492e+08            0 -2.4725492e+08    73.290922 
     292            0 -2.4725492e+08            0 -2.4725492e+08    73.301075 
     293            0 -2.4725492e+08            0 -2.4725492e+08    73.306405 
     294            0 -2.4725492e+08            0 -2.4725492e+08    73.306757 
     295            0 -2.4725492e+08            0 -2.4725492e+08    73.310231 
     296            0 -2.4725493e+08            0 -2.4725493e+08    73.319478 
     297            0 -2.4725493e+08            0 -2.4725493e+08    73.327053 
     298            0 -2.4725493e+08            0 -2.4725493e+08    73.327009 
     299            0 -2.4725493e+08            0 -2.4725493e+08    73.326552 
     300            0 -2.4725493e+08            0 -2.4725493e+08    73.333454 
     301            0 -2.4725493e+08            0 -2.4725493e+08     73.34279 
     302            0 -2.4725493e+08            0 -2.4725493e+08    73.346319 
     303            0 -2.4725493e+08            0 -2.4725493e+08    73.346029 
     304            0 -2.4725493e+08            0 -2.4725493e+08    73.350252 
     305            0 -2.4725493e+08            0 -2.4725493e+08    73.361642 
     306            0 -2.4725493e+08            0 -2.4725493e+08    73.371048 
     307            0 -2.4725493e+08            0 -2.4725493e+08    73.373896 
     308            0 -2.4725493e+08            0 -2.4725493e+08    73.376967 
     309            0 -2.4725493e+08            0 -2.4725493e+08    73.388223 
     310            0 -2.4725493e+08            0 -2.4725493e+08    73.402408 
     311            0 -2.4725494e+08            0 -2.4725494e+08    73.410675 
     312            0 -2.4725494e+08            0 -2.4725494e+08    73.412772 
     313            0 -2.4725494e+08            0 -2.4725494e+08    73.418186 
     314            0 -2.4725494e+08            0 -2.4725494e+08    73.430954 
     315            0 -2.4725494e+08            0 -2.4725494e+08    73.444858 
     316            0 -2.4725494e+08            0 -2.4725494e+08    73.449664 
     317            0 -2.4725494e+08            0 -2.4725494e+08    73.448089 
     318            0 -2.4725494e+08            0 -2.4725494e+08    73.452297 
     319            0 -2.4725495e+08            0 -2.4725495e+08    73.464349 
     320            0 -2.4725495e+08            0 -2.4725495e+08    73.473899 
     321            0 -2.4725495e+08            0 -2.4725495e+08    73.471207 
     322            0 -2.4725495e+08            0 -2.4725495e+08    73.468838 
     323            0 -2.4725495e+08            0 -2.4725495e+08    73.476403 
     324            0 -2.4725495e+08            0 -2.4725495e+08    73.485441 
     325            0 -2.4725496e+08            0 -2.4725496e+08    73.485088 
     326            0 -2.4725496e+08            0 -2.4725496e+08    73.480295 
     327            0 -2.4725496e+08            0 -2.4725496e+08     73.48239 
     328            0 -2.4725496e+08            0 -2.4725496e+08    73.489172 
     329            0 -2.4725496e+08            0 -2.4725496e+08    73.489496 
     330            0 -2.4725497e+08            0 -2.4725497e+08    73.485039 
     331            0 -2.4725497e+08            0 -2.4725497e+08    73.484923 
     332            0 -2.4725497e+08            0 -2.4725497e+08    73.492485 
     333            0 -2.4725497e+08            0 -2.4725497e+08     73.50348 
     334            0 -2.4725498e+08            0 -2.4725498e+08    73.486178 
     335            0 -2.4725498e+08            0 -2.4725498e+08    73.471963 
     336            0 -2.4725498e+08            0 -2.4725498e+08      73.4855 
     337            0 -2.4725499e+08            0 -2.4725499e+08    73.495068 
     338            0 -2.4725499e+08            0 -2.4725499e+08    73.479219 
     339            0 -2.4725499e+08            0 -2.4725499e+08    73.463419 
     340            0 -2.47255e+08            0 -2.47255e+08    73.467066 
     341            0 -2.47255e+08            0 -2.47255e+08     73.46821 
     342            0 -2.47255e+08            0 -2.47255e+08     73.44975 
     343            0 -2.4725501e+08            0 -2.4725501e+08    73.424851 
     344            0 -2.4725501e+08            0 -2.4725501e+08    73.406996 
     345            0 -2.4725502e+08            0 -2.4725502e+08    73.388567 
     346            0 -2.4725502e+08            0 -2.4725502e+08    73.364792 
     347            0 -2.4725502e+08            0 -2.4725502e+08     73.34646 
     348            0 -2.4725503e+08            0 -2.4725503e+08    73.345598 
     349            0 -2.4725503e+08            0 -2.4725503e+08    73.350054 
     350            0 -2.4725503e+08            0 -2.4725503e+08    73.343948 
     351            0 -2.4725504e+08            0 -2.4725504e+08    73.327341 
     352            0 -2.4725504e+08            0 -2.4725504e+08    73.314348 
     353            0 -2.4725504e+08            0 -2.4725504e+08     73.31643 
     354            0 -2.4725505e+08            0 -2.4725505e+08    73.323783 
     355            0 -2.4725505e+08            0 -2.4725505e+08      73.3235 
     356            0 -2.4725505e+08            0 -2.4725505e+08     73.31099 
     357            0 -2.4725506e+08            0 -2.4725506e+08    73.300285 
     358            0 -2.4725506e+08            0 -2.4725506e+08    73.303918 
     359            0 -2.4725506e+08            0 -2.4725506e+08    73.311908 
     360            0 -2.4725507e+08            0 -2.4725507e+08    73.306908 
     361            0 -2.4725507e+08            0 -2.4725507e+08    73.288663 
     362            0 -2.4725507e+08            0 -2.4725507e+08    73.278296 
     363            0 -2.4725508e+08            0 -2.4725508e+08    73.287023 
     364            0 -2.4725508e+08            0 -2.4725508e+08    73.290526 
     365            0 -2.4725508e+08            0 -2.4725508e+08    73.269173 
     366            0 -2.4725509e+08            0 -2.4725509e+08     73.25063 
     367            0 -2.4725509e+08            0 -2.4725509e+08    73.248793 
     368            0 -2.4725509e+08            0 -2.4725509e+08    73.254976 
     369            0 -2.472551e+08            0 -2.472551e+08    73.246111 
     370            0 -2.472551e+08            0 -2.472551e+08    73.221477 
     371            0 -2.472551e+08            0 -2.472551e+08    73.203188 
     372            0 -2.4725511e+08            0 -2.4725511e+08    73.197724 
     373            0 -2.4725511e+08            0 -2.4725511e+08    73.200765 
     374            0 -2.4725511e+08            0 -2.4725511e+08    73.184457 
     375            0 -2.4725511e+08            0 -2.4725511e+08    73.161993 
     376            0 -2.4725512e+08            0 -2.4725512e+08    73.152134 
     377            0 -2.4725512e+08            0 -2.4725512e+08    73.153104 
     378            0 -2.4725512e+08            0 -2.4725512e+08     73.15154 
     379            0 -2.4725513e+08            0 -2.4725513e+08    73.129136 
     380            0 -2.4725513e+08            0 -2.4725513e+08    73.108295 
     381            0 -2.4725513e+08            0 -2.4725513e+08    73.104505 
     382            0 -2.4725513e+08            0 -2.4725513e+08    73.104152 
     383            0 -2.4725514e+08            0 -2.4725514e+08    73.092638 
     384            0 -2.4725514e+08            0 -2.4725514e+08    73.072753 
     385            0 -2.4725514e+08            0 -2.4725514e+08    73.057961 
     386            0 -2.4725514e+08            0 -2.4725514e+08    73.048635 
     387            0 -2.4725514e+08            0 -2.4725514e+08    73.048331 
     388            0 -2.4725514e+08            0 -2.4725514e+08    73.041911 
     389            0 -2.4725515e+08            0 -2.4725515e+08     73.02037 
     390            0 -2.4725515e+08            0 -2.4725515e+08    72.988079 
     391            0 -2.4725515e+08            0 -2.4725515e+08    72.987989 
     392            0 -2.4725515e+08            0 -2.4725515e+08     72.99914 
     393            0 -2.4725515e+08            0 -2.4725515e+08    72.992688 
     394            0 -2.4725516e+08            0 -2.4725516e+08     72.96462 
     395            0 -2.4725516e+08            0 -2.4725516e+08    72.944025 
     396            0 -2.4725516e+08            0 -2.4725516e+08    72.946838 
     397            0 -2.4725516e+08            0 -2.4725516e+08    72.958369 
     398            0 -2.4725516e+08            0 -2.4725516e+08      72.9579 
     399            0 -2.4725517e+08            0 -2.4725517e+08    72.939908 
     400            0 -2.4725517e+08            0 -2.4725517e+08    72.928335 
     401            0 -2.4725517e+08            0 -2.4725517e+08    72.927844 
     402            0 -2.4725517e+08            0 -2.4725517e+08    72.942542 
     403            0 -2.4725517e+08            0 -2.4725517e+08    72.948514 
     404            0 -2.4725518e+08            0 -2.4725518e+08    72.931142 
     405            0 -2.4725518e+08            0 -2.4725518e+08    72.918299 
     406            0 -2.4725518e+08            0 -2.4725518e+08    72.924896 
     407            0 -2.4725518e+08            0 -2.4725518e+08    72.935358 
     408            0 -2.4725518e+08            0 -2.4725518e+08    72.943079 
     409            0 -2.4725519e+08            0 -2.4725519e+08    72.936963 
     410            0 -2.4725519e+08            0 -2.4725519e+08    72.925526 
     411            0 -2.4725519e+08            0 -2.4725519e+08    72.924541 
     412            0 -2.4725519e+08            0 -2.4725519e+08    72.933608 
     413            0 -2.472552e+08            0 -2.472552e+08    72.937886 
     414            0 -2.472552e+08            0 -2.472552e+08    72.938043 
     415            0 -2.472552e+08            0 -2.472552e+08    72.931685 
     416            0 -2.472552e+08            0 -2.472552e+08     72.92416 
     417            0 -2.4725521e+08            0 -2.4725521e+08    72.926406 
     418            0 -2.4725521e+08            0 -2.4725521e+08    72.931924 
     419            0 -2.4725521e+08            0 -2.4725521e+08    72.928318 
     420            0 -2.4725522e+08            0 -2.4725522e+08    72.922108 
     421            0 -2.4725522e+08            0 -2.4725522e+08    72.916185 
     422            0 -2.4725522e+08            0 -2.4725522e+08    72.911967 
     423            0 -2.4725522e+08            0 -2.4725522e+08    72.914141 
     424            0 -2.4725523e+08            0 -2.4725523e+08    72.916837 
     425            0 -2.4725523e+08            0 -2.4725523e+08    72.910558 
     426            0 -2.4725523e+08            0 -2.4725523e+08    72.896681 
     427            0 -2.4725523e+08            0 -2.4725523e+08    72.879115 
     428            0 -2.4725524e+08            0 -2.4725524e+08    72.867229 
     429            0 -2.4725524e+08            0 -2.4725524e+08        72.86 
     430            0 -2.4725524e+08            0 -2.4725524e+08    72.850757 
     431            0 -2.4725524e+08            0 -2.4725524e+08    72.834036 
     432            0 -2.4725525e+08            0 -2.4725525e+08    72.816696 
     433            0 -2.4725525e+08            0 -2.4725525e+08    72.807257 
     434            0 -2.4725525e+08            0 -2.4725525e+08    72.806227 
     435            0 -2.4725525e+08            0 -2.4725525e+08    72.804096 
     436            0 -2.4725525e+08            0 -2.4725525e+08    72.797181 
     437            0 -2.4725526e+08            0 -2.4725526e+08    72.785038 
     438            0 -2.4725526e+08            0 -2.4725526e+08     72.77765 
     439            0 -2.4725526e+08            0 -2.4725526e+08    72.775395 
     440            0 -2.4725526e+08            0 -2.4725526e+08    72.771903 
     441            0 -2.4725526e+08            0 -2.4725526e+08     72.76757 
     442            0 -2.4725527e+08            0 -2.4725527e+08    72.763706 
     443            0 -2.4725527e+08            0 -2.4725527e+08     72.75462 
     444            0 -2.4725527e+08            0 -2.4725527e+08    72.744384 
     445            0 -2.4725527e+08            0 -2.4725527e+08    72.738482 
     446            0 -2.4725527e+08            0 -2.4725527e+08    72.734941 
     447            0 -2.4725528e+08            0 -2.4725528e+08    72.736535 
     448            0 -2.4725528e+08            0 -2.4725528e+08    72.735873 
     449            0 -2.4725528e+08            0 -2.4725528e+08    72.729523 
     450            0 -2.4725528e+08            0 -2.4725528e+08    72.722839 
     451            0 -2.4725528e+08            0 -2.4725528e+08    72.719398 
     452            0 -2.4725529e+08            0 -2.4725529e+08     72.71916 
     453            0 -2.4725529e+08            0 -2.4725529e+08    72.723582 
     454            0 -2.4725529e+08            0 -2.4725529e+08     72.72728 
     455            0 -2.4725529e+08            0 -2.4725529e+08    72.724209 
     456            0 -2.472553e+08            0 -2.472553e+08    72.718498 
     457            0 -2.472553e+08            0 -2.472553e+08     72.71049 
     458            0 -2.472553e+08            0 -2.472553e+08    72.701342 
     459            0 -2.472553e+08            0 -2.472553e+08      72.7002 
     460            0 -2.4725531e+08            0 -2.4725531e+08    72.703919 
     461            0 -2.4725531e+08            0 -2.4725531e+08    72.697975 
     462            0 -2.4725531e+08            0 -2.4725531e+08    72.683196 
     463            0 -2.4725531e+08            0 -2.4725531e+08    72.673025 
     464            0 -2.4725531e+08            0 -2.4725531e+08    72.668245 
     465            0 -2.4725532e+08            0 -2.4725532e+08    72.675414 
     466            0 -2.4725532e+08            0 -2.4725532e+08    72.678666 
     467            0 -2.4725532e+08            0 -2.4725532e+08    72.665722 
     468            0 -2.4725532e+08            0 -2.4725532e+08    72.640603 
     469            0 -2.4725533e+08            0 -2.4725533e+08    72.631471 
     470            0 -2.4725533e+08            0 -2.4725533e+08    72.634115 
     471            0 -2.4725533e+08            0 -2.4725533e+08    72.644481 
     472            0 -2.4725533e+08            0 -2.4725533e+08    72.643568 
     473            0 -2.4725533e+08            0 -2.4725533e+08    72.627809 
     474            0 -2.4725533e+08            0 -2.4725533e+08    72.601436 
     475            0 -2.4725534e+08            0 -2.4725534e+08    72.601801 
     476            0 -2.4725534e+08            0 -2.4725534e+08    72.613867 
     477            0 -2.4725534e+08            0 -2.4725534e+08    72.618132 
     478            0 -2.4725534e+08            0 -2.4725534e+08    72.608458 
     479            0 -2.4725534e+08            0 -2.4725534e+08    72.592807 
     480            0 -2.4725535e+08            0 -2.4725535e+08    72.584137 
     481            0 -2.4725535e+08            0 -2.4725535e+08    72.592575 
     482            0 -2.4725535e+08            0 -2.4725535e+08    72.597727 
     483            0 -2.4725535e+08            0 -2.4725535e+08    72.595276 
     484            0 -2.4725535e+08            0 -2.4725535e+08    72.595734 
     485            0 -2.4725536e+08            0 -2.4725536e+08    72.593185 
     486            0 -2.4725536e+08            0 -2.4725536e+08     72.59726 
     487            0 -2.4725536e+08            0 -2.4725536e+08    72.598541 
     488            0 -2.4725536e+08            0 -2.4725536e+08    72.594816 
     489            0 -2.4725536e+08            0 -2.4725536e+08    72.600969 
     490            0 -2.4725537e+08            0 -2.4725537e+08    72.609417 
     491            0 -2.4725537e+08            0 -2.4725537e+08    72.608008 
     492            0 -2.4725537e+08            0 -2.4725537e+08    72.601473 
     493            0 -2.4725537e+08            0 -2.4725537e+08    72.594766 
     494            0 -2.4725537e+08            0 -2.4725537e+08    72.597623 
     495            0 -2.4725538e+08            0 -2.4725538e+08     72.61652 
     496            0 -2.4725538e+08            0 -2.4725538e+08    72.620537 
     497            0 -2.4725538e+08            0 -2.4725538e+08    72.610079 
     498            0 -2.4725538e+08            0 -2.4725538e+08     72.59427 
     499            0 -2.4725538e+08            0 -2.4725538e+08    72.586197 
     500            0 -2.4725538e+08            0 -2.4725538e+08    72.598141 
     501            0 -2.4725539e+08            0 -2.4725539e+08    72.614743 
     502            0 -2.4725539e+08            0 -2.4725539e+08    72.611492 
     503            0 -2.4725539e+08            0 -2.4725539e+08    72.591196 
     504            0 -2.4725539e+08            0 -2.4725539e+08    72.575667 
     505            0 -2.4725539e+08            0 -2.4725539e+08    72.595192 
     506            0 -2.4725539e+08            0 -2.4725539e+08    72.609704 
     507            0 -2.472554e+08            0 -2.472554e+08    72.600599 
     508            0 -2.472554e+08            0 -2.472554e+08    72.587731 
     509            0 -2.472554e+08            0 -2.472554e+08    72.595892 
     510            0 -2.472554e+08            0 -2.472554e+08     72.61259 
     511            0 -2.472554e+08            0 -2.472554e+08    72.615253 
     512            0 -2.4725541e+08            0 -2.4725541e+08    72.615226 
     513            0 -2.4725541e+08            0 -2.4725541e+08    72.618583 
     514            0 -2.4725541e+08            0 -2.4725541e+08    72.625312 
     515            0 -2.4725541e+08            0 -2.4725541e+08    72.625618 
     516            0 -2.4725541e+08            0 -2.4725541e+08    72.625896 
     517            0 -2.4725542e+08            0 -2.4725542e+08    72.634841 
     518            0 -2.4725542e+08            0 -2.4725542e+08    72.638322 
     519            0 -2.4725542e+08            0 -2.4725542e+08    72.631506 
     520            0 -2.4725542e+08            0 -2.4725542e+08    72.621972 
     521            0 -2.4725542e+08            0 -2.4725542e+08    72.617551 
     522            0 -2.4725542e+08            0 -2.4725542e+08    72.617803 
     523            0 -2.4725543e+08            0 -2.4725543e+08    72.622109 
     524            0 -2.4725543e+08            0 -2.4725543e+08     72.61688 
     525            0 -2.4725543e+08            0 -2.4725543e+08    72.601687 
     526            0 -2.4725543e+08            0 -2.4725543e+08    72.591347 
     527            0 -2.4725543e+08            0 -2.4725543e+08    72.589343 
     528            0 -2.4725543e+08            0 -2.4725543e+08    72.590363 
     529            0 -2.4725543e+08            0 -2.4725543e+08    72.589231 
     530            0 -2.4725544e+08            0 -2.4725544e+08    72.582108 
     531            0 -2.4725544e+08            0 -2.4725544e+08    72.571644 
     532            0 -2.4725544e+08            0 -2.4725544e+08    72.565001 
     533            0 -2.4725544e+08            0 -2.4725544e+08    72.561861 
     534            0 -2.4725544e+08            0 -2.4725544e+08    72.565419 
     535            0 -2.4725544e+08            0 -2.4725544e+08    72.570318 
     536            0 -2.4725545e+08            0 -2.4725545e+08    72.569577 
     537            0 -2.4725545e+08            0 -2.4725545e+08      72.5628 
     538            0 -2.4725545e+08            0 -2.4725545e+08    72.555911 
     539            0 -2.4725545e+08            0 -2.4725545e+08    72.553455 
     540            0 -2.4725545e+08            0 -2.4725545e+08    72.555873 
     541            0 -2.4725545e+08            0 -2.4725545e+08    72.562277 
     542            0 -2.4725546e+08            0 -2.4725546e+08    72.557799 
     543            0 -2.4725546e+08            0 -2.4725546e+08    72.544968 
     544            0 -2.4725546e+08            0 -2.4725546e+08    72.538998 
     545            0 -2.4725546e+08            0 -2.4725546e+08    72.540611 
     546            0 -2.4725546e+08            0 -2.4725546e+08    72.547738 
     547            0 -2.4725546e+08            0 -2.4725546e+08    72.548845 
     548            0 -2.4725546e+08            0 -2.4725546e+08    72.536416 
     549            0 -2.4725547e+08            0 -2.4725547e+08    72.521954 
     550            0 -2.4725547e+08            0 -2.4725547e+08    72.522851 
     551            0 -2.4725547e+08            0 -2.4725547e+08    72.529142 
     552            0 -2.4725547e+08            0 -2.4725547e+08    72.532379 
     553            0 -2.4725547e+08            0 -2.4725547e+08    72.525358 
     554            0 -2.4725547e+08            0 -2.4725547e+08    72.511893 
     555            0 -2.4725547e+08            0 -2.4725547e+08    72.505325 
     556            0 -2.4725547e+08            0 -2.4725547e+08    72.508213 
     557            0 -2.4725548e+08            0 -2.4725548e+08    72.509175 
     558            0 -2.4725548e+08            0 -2.4725548e+08     72.50705 
     559            0 -2.4725548e+08            0 -2.4725548e+08    72.506613 
     560            0 -2.4725548e+08            0 -2.4725548e+08    72.501957 
     561            0 -2.4725548e+08            0 -2.4725548e+08    72.499469 
     562            0 -2.4725548e+08            0 -2.4725548e+08    72.499268 
     563            0 -2.4725549e+08            0 -2.4725549e+08    72.498714 
     564            0 -2.4725549e+08            0 -2.4725549e+08    72.506481 
     565            0 -2.4725549e+08            0 -2.4725549e+08    72.512247 
     566            0 -2.4725549e+08            0 -2.4725549e+08    72.508898 
     567            0 -2.4725549e+08            0 -2.4725549e+08    72.503266 
     568            0 -2.4725549e+08            0 -2.4725549e+08    72.502277 
     569            0 -2.472555e+08            0 -2.472555e+08    72.503415 
     570            0 -2.472555e+08            0 -2.472555e+08    72.507177 
     571            0 -2.472555e+08            0 -2.472555e+08    72.505718 
     572            0 -2.472555e+08            0 -2.472555e+08    72.495315 
     573            0 -2.472555e+08            0 -2.472555e+08    72.481206 
     574            0 -2.472555e+08            0 -2.472555e+08    72.479243 
     575            0 -2.4725551e+08            0 -2.4725551e+08    72.484248 
     576            0 -2.4725551e+08            0 -2.4725551e+08    72.488506 
     577            0 -2.4725551e+08            0 -2.4725551e+08    72.480776 
     578            0 -2.4725551e+08            0 -2.4725551e+08    72.466378 
     579            0 -2.4725551e+08            0 -2.4725551e+08    72.458408 
     580            0 -2.4725551e+08            0 -2.4725551e+08    72.463475 
     581            0 -2.4725551e+08            0 -2.4725551e+08    72.470068 
     582            0 -2.4725552e+08            0 -2.4725552e+08    72.467715 
     583            0 -2.4725552e+08            0 -2.4725552e+08    72.457831 
     584            0 -2.4725552e+08            0 -2.4725552e+08    72.451034 
     585            0 -2.4725552e+08            0 -2.4725552e+08    72.449788 
     586            0 -2.4725552e+08            0 -2.4725552e+08    72.448604 
     587            0 -2.4725552e+08            0 -2.4725552e+08    72.448325 
     588            0 -2.4725553e+08            0 -2.4725553e+08    72.447876 
     589            0 -2.4725553e+08            0 -2.4725553e+08     72.44182 
     590            0 -2.4725553e+08            0 -2.4725553e+08    72.435602 
     591            0 -2.4725553e+08            0 -2.4725553e+08    72.429042 
     592            0 -2.4725553e+08            0 -2.4725553e+08    72.425761 
     593            0 -2.4725553e+08            0 -2.4725553e+08    72.420372 
     594            0 -2.4725553e+08            0 -2.4725553e+08    72.411326 
     595            0 -2.4725553e+08            0 -2.4725553e+08    72.401006 
     596            0 -2.4725553e+08            0 -2.4725553e+08    72.390813 
     597            0 -2.4725554e+08            0 -2.4725554e+08    72.388745 
     598            0 -2.4725554e+08            0 -2.4725554e+08    72.389257 
     599            0 -2.4725554e+08            0 -2.4725554e+08    72.387206 
     600            0 -2.4725554e+08            0 -2.4725554e+08    72.381152 
     601            0 -2.4725554e+08            0 -2.4725554e+08     72.37767 
     602            0 -2.4725554e+08            0 -2.4725554e+08    72.374283 
     603            0 -2.4725554e+08            0 -2.4725554e+08    72.369535 
     604            0 -2.4725555e+08            0 -2.4725555e+08    72.367158 
     605            0 -2.4725555e+08            0 -2.4725555e+08    72.365116 
     606            0 -2.4725555e+08            0 -2.4725555e+08    72.360745 
     607            0 -2.4725555e+08            0 -2.4725555e+08     72.35594 
     608            0 -2.4725555e+08            0 -2.4725555e+08    72.349337 
     609            0 -2.4725555e+08            0 -2.4725555e+08     72.34655 
     610            0 -2.4725555e+08            0 -2.4725555e+08    72.347529 
     611            0 -2.4725556e+08            0 -2.4725556e+08    72.346528 
     612            0 -2.4725556e+08            0 -2.4725556e+08    72.342766 
     613            0 -2.4725556e+08            0 -2.4725556e+08    72.337041 
     614            0 -2.4725556e+08            0 -2.4725556e+08    72.330798 
     615            0 -2.4725556e+08            0 -2.4725556e+08    72.330401 
     616            0 -2.4725556e+08            0 -2.4725556e+08    72.333388 
     617            0 -2.4725556e+08            0 -2.4725556e+08    72.331858 
     618            0 -2.4725557e+08            0 -2.4725557e+08    72.327983 
     619            0 -2.4725557e+08            0 -2.4725557e+08    72.325176 
     620            0 -2.4725557e+08            0 -2.4725557e+08    72.323854 
     621            0 -2.4725557e+08            0 -2.4725557e+08    72.327241 
     622            0 -2.4725557e+08            0 -2.4725557e+08    72.326322 
     623            0 -2.4725557e+08            0 -2.4725557e+08    72.324374 
     624            0 -2.4725558e+08            0 -2.4725558e+08    72.322173 
     625            0 -2.4725558e+08            0 -2.4725558e+08    72.326302 
     626            0 -2.4725558e+08            0 -2.4725558e+08    72.326704 
     627            0 -2.4725558e+08            0 -2.4725558e+08    72.323803 
     628            0 -2.4725558e+08            0 -2.4725558e+08    72.324495 
     629            0 -2.4725559e+08            0 -2.4725559e+08    72.321875 
     630            0 -2.4725559e+08            0 -2.4725559e+08    72.320443 
     631            0 -2.4725559e+08            0 -2.4725559e+08    72.320071 
     632            0 -2.4725559e+08            0 -2.4725559e+08    72.316099 
     633            0 -2.4725559e+08            0 -2.4725559e+08    72.309472 
     634            0 -2.4725559e+08            0 -2.4725559e+08    72.306384 
     635            0 -2.472556e+08            0 -2.472556e+08    72.300884 
     636            0 -2.472556e+08            0 -2.472556e+08    72.293937 
     637            0 -2.472556e+08            0 -2.472556e+08    72.287989 
     638            0 -2.472556e+08            0 -2.472556e+08     72.28121 
     639            0 -2.472556e+08            0 -2.472556e+08     72.27721 
     640            0 -2.472556e+08            0 -2.472556e+08    72.275499 
     641            0 -2.472556e+08            0 -2.472556e+08    72.269404 
     642            0 -2.4725561e+08            0 -2.4725561e+08    72.260834 
     643            0 -2.4725561e+08            0 -2.4725561e+08    72.257148 
     644            0 -2.4725561e+08            0 -2.4725561e+08    72.254107 
     645            0 -2.4725561e+08            0 -2.4725561e+08     72.25428 
     646            0 -2.4725561e+08            0 -2.4725561e+08    72.249747 
     647            0 -2.4725561e+08            0 -2.4725561e+08    72.242756 
     648            0 -2.4725561e+08            0 -2.4725561e+08     72.23834 
     649            0 -2.4725562e+08            0 -2.4725562e+08    72.236674 
     650            0 -2.4725562e+08            0 -2.4725562e+08    72.238461 
     651            0 -2.4725562e+08            0 -2.4725562e+08    72.235981 
     652            0 -2.4725562e+08            0 -2.4725562e+08    72.231023 
     653            0 -2.4725562e+08            0 -2.4725562e+08    72.229399 
     654            0 -2.4725562e+08            0 -2.4725562e+08    72.229127 
     655            0 -2.4725562e+08            0 -2.4725562e+08    72.231373 
     656            0 -2.4725563e+08            0 -2.4725563e+08     72.23074 
     657            0 -2.4725563e+08            0 -2.4725563e+08    72.225836 
     658            0 -2.4725563e+08            0 -2.4725563e+08    72.221735 
     659            0 -2.4725563e+08            0 -2.4725563e+08    72.220327 
     660            0 -2.4725563e+08            0 -2.4725563e+08    72.218518 
     661            0 -2.4725563e+08            0 -2.4725563e+08    72.217068 
     662            0 -2.4725563e+08            0 -2.4725563e+08    72.212966 
     663            0 -2.4725564e+08            0 -2.4725564e+08    72.207141 
     664            0 -2.4725564e+08            0 -2.4725564e+08    72.201304 
     665            0 -2.4725564e+08            0 -2.4725564e+08     72.19745 
     666            0 -2.4725564e+08            0 -2.4725564e+08    72.195923 
     667            0 -2.4725564e+08            0 -2.4725564e+08     72.19409 
     668            0 -2.4725564e+08            0 -2.4725564e+08    72.189075 
     669            0 -2.4725564e+08            0 -2.4725564e+08    72.178872 
     670            0 -2.4725564e+08            0 -2.4725564e+08    72.174706 
     671            0 -2.4725564e+08            0 -2.4725564e+08    72.172738 
     672            0 -2.4725564e+08            0 -2.4725564e+08     72.17127 
     673            0 -2.4725564e+08            0 -2.4725564e+08    72.169576 
     674            0 -2.4725564e+08            0 -2.4725564e+08    72.164315 
     675            0 -2.4725565e+08            0 -2.4725565e+08    72.153921 
     676            0 -2.4725565e+08            0 -2.4725565e+08    72.150399 
     677            0 -2.4725565e+08            0 -2.4725565e+08    72.149326 
     678            0 -2.4725565e+08            0 -2.4725565e+08    72.146895 
     679            0 -2.4725565e+08            0 -2.4725565e+08    72.146688 
     680            0 -2.4725565e+08            0 -2.4725565e+08    72.144113 
     681            0 -2.4725565e+08            0 -2.4725565e+08    72.140545 
     682            0 -2.4725565e+08            0 -2.4725565e+08     72.13906 
     683            0 -2.4725565e+08            0 -2.4725565e+08    72.137109 
     684            0 -2.4725566e+08            0 -2.4725566e+08    72.135821 
     685            0 -2.4725566e+08            0 -2.4725566e+08    72.133242 
     686            0 -2.4725566e+08            0 -2.4725566e+08    72.127464 
     687            0 -2.4725566e+08            0 -2.4725566e+08    72.122831 
     688            0 -2.4725566e+08            0 -2.4725566e+08    72.121161 
     689            0 -2.4725566e+08            0 -2.4725566e+08    72.117651 
     690            0 -2.4725566e+08            0 -2.4725566e+08    72.118423 
     691            0 -2.4725566e+08            0 -2.4725566e+08    72.116976 
     692            0 -2.4725566e+08            0 -2.4725566e+08     72.11635 
     693            0 -2.4725567e+08            0 -2.4725567e+08    72.114456 
     694            0 -2.4725567e+08            0 -2.4725567e+08    72.111401 
     695            0 -2.4725567e+08            0 -2.4725567e+08    72.110013 
     696            0 -2.4725567e+08            0 -2.4725567e+08    72.109923 
     697            0 -2.4725567e+08            0 -2.4725567e+08    72.106887 
     698            0 -2.4725567e+08            0 -2.4725567e+08    72.106197 
     699            0 -2.4725568e+08            0 -2.4725568e+08     72.10694 
     700            0 -2.4725568e+08            0 -2.4725568e+08    72.102151 
     701            0 -2.4725568e+08            0 -2.4725568e+08    72.099409 
     702            0 -2.4725568e+08            0 -2.4725568e+08    72.099238 
     703            0 -2.4725568e+08            0 -2.4725568e+08    72.093117 
     704            0 -2.4725568e+08            0 -2.4725568e+08    72.088611 
     705            0 -2.4725568e+08            0 -2.4725568e+08    72.087044 
     706            0 -2.4725569e+08            0 -2.4725569e+08    72.082527 
     707            0 -2.4725569e+08            0 -2.4725569e+08    72.076747 
     708            0 -2.4725569e+08            0 -2.4725569e+08    72.074376 
     709            0 -2.4725569e+08            0 -2.4725569e+08    72.069945 
     710            0 -2.4725569e+08            0 -2.4725569e+08    72.064867 
     711            0 -2.4725569e+08            0 -2.4725569e+08    72.063184 
     712            0 -2.472557e+08            0 -2.472557e+08    72.057445 
     713            0 -2.472557e+08            0 -2.472557e+08     72.05613 
     714            0 -2.472557e+08            0 -2.472557e+08    72.051404 
     715            0 -2.472557e+08            0 -2.472557e+08    72.049532 
     716            0 -2.472557e+08            0 -2.472557e+08    72.044252 
     717            0 -2.472557e+08            0 -2.472557e+08    72.041918 
     718            0 -2.472557e+08            0 -2.472557e+08    72.036334 
     719            0 -2.472557e+08            0 -2.472557e+08    72.031333 
     720            0 -2.472557e+08            0 -2.472557e+08    72.024757 
     721            0 -2.4725571e+08            0 -2.4725571e+08    72.022693 
     722            0 -2.4725571e+08            0 -2.4725571e+08    72.019126 
     723            0 -2.4725571e+08            0 -2.4725571e+08    72.014289 
     724            0 -2.4725571e+08            0 -2.4725571e+08      72.0105 
     725            0 -2.4725571e+08            0 -2.4725571e+08    72.008948 
     726            0 -2.4725571e+08            0 -2.4725571e+08    72.004905 
     727            0 -2.4725571e+08            0 -2.4725571e+08    72.001553 
     728            0 -2.4725571e+08            0 -2.4725571e+08    71.999677 
     729            0 -2.4725571e+08            0 -2.4725571e+08    71.994203 
     730            0 -2.4725572e+08            0 -2.4725572e+08    71.993858 
     731            0 -2.4725572e+08            0 -2.4725572e+08    71.994212 
     732            0 -2.4725572e+08            0 -2.4725572e+08    71.989655 
     733            0 -2.4725572e+08            0 -2.4725572e+08    71.987384 
     734            0 -2.4725572e+08            0 -2.4725572e+08    71.987431 
     735            0 -2.4725572e+08            0 -2.4725572e+08    71.980978 
     736            0 -2.4725572e+08            0 -2.4725572e+08    71.976172 
     737            0 -2.4725573e+08            0 -2.4725573e+08    71.973163 
     738            0 -2.4725573e+08            0 -2.4725573e+08    71.966898 
     739            0 -2.4725573e+08            0 -2.4725573e+08    71.959083 
     740            0 -2.4725573e+08            0 -2.4725573e+08    71.951841 
     741            0 -2.4725573e+08            0 -2.4725573e+08    71.947645 
     742            0 -2.4725573e+08            0 -2.4725573e+08    71.940968 
     743            0 -2.4725573e+08            0 -2.4725573e+08    71.934573 
     744            0 -2.4725574e+08            0 -2.4725574e+08    71.926646 
     745            0 -2.4725574e+08            0 -2.4725574e+08    71.918345 
     746            0 -2.4725574e+08            0 -2.4725574e+08    71.911979 
     747            0 -2.4725574e+08            0 -2.4725574e+08    71.908147 
     748            0 -2.4725574e+08            0 -2.4725574e+08    71.903201 
     749            0 -2.4725574e+08            0 -2.4725574e+08    71.901319 
     750            0 -2.4725574e+08            0 -2.4725574e+08    71.895938 
     751            0 -2.4725575e+08            0 -2.4725575e+08    71.893042 
     752            0 -2.4725575e+08            0 -2.4725575e+08    71.888977 
     753            0 -2.4725575e+08            0 -2.4725575e+08    71.883998 
     754            0 -2.4725575e+08            0 -2.4725575e+08    71.878823 
     755            0 -2.4725575e+08            0 -2.4725575e+08    71.873498 
     756            0 -2.4725575e+08            0 -2.4725575e+08    71.869796 
     757            0 -2.4725575e+08            0 -2.4725575e+08    71.865649 
     758            0 -2.4725575e+08            0 -2.4725575e+08    71.863174 
     759            0 -2.4725575e+08            0 -2.4725575e+08    71.859264 
     760            0 -2.4725576e+08            0 -2.4725576e+08    71.855148 
     761            0 -2.4725576e+08            0 -2.4725576e+08    71.853478 
     762            0 -2.4725576e+08            0 -2.4725576e+08    71.850069 
     763            0 -2.4725576e+08            0 -2.4725576e+08    71.847085 
     764            0 -2.4725576e+08            0 -2.4725576e+08    71.845008 
     765            0 -2.4725576e+08            0 -2.4725576e+08    71.841695 
     766            0 -2.4725576e+08            0 -2.4725576e+08    71.837185 
     767            0 -2.4725576e+08            0 -2.4725576e+08    71.834406 
     768            0 -2.4725576e+08            0 -2.4725576e+08    71.831863 
     769            0 -2.4725577e+08            0 -2.4725577e+08    71.828119 
     770            0 -2.4725577e+08            0 -2.4725577e+08    71.825265 
     771            0 -2.4725577e+08            0 -2.4725577e+08    71.825023 
     772            0 -2.4725577e+08            0 -2.4725577e+08    71.820325 
     773            0 -2.4725577e+08            0 -2.4725577e+08    71.817512 
     774            0 -2.4725577e+08            0 -2.4725577e+08    71.817069 
     775            0 -2.4725577e+08            0 -2.4725577e+08    71.813061 
     776            0 -2.4725577e+08            0 -2.4725577e+08    71.813992 
     777            0 -2.4725578e+08            0 -2.4725578e+08    71.819404 
     778            0 -2.4725578e+08            0 -2.4725578e+08    71.817762 
     779            0 -2.4725578e+08            0 -2.4725578e+08    71.819951 
     780            0 -2.4725578e+08            0 -2.4725578e+08    71.820245 
     781            0 -2.4725578e+08            0 -2.4725578e+08      71.8172 
     782            0 -2.4725578e+08            0 -2.4725578e+08    71.814222 
     783            0 -2.4725578e+08            0 -2.4725578e+08    71.814681 
     784            0 -2.4725579e+08            0 -2.4725579e+08    71.811284 
     785            0 -2.4725579e+08            0 -2.4725579e+08    71.810203 
     786            0 -2.4725579e+08            0 -2.4725579e+08     71.80892 
     787            0 -2.4725579e+08            0 -2.4725579e+08     71.80472 
     788            0 -2.4725579e+08            0 -2.4725579e+08    71.802602 
     789            0 -2.4725579e+08            0 -2.4725579e+08    71.801034 
     790            0 -2.4725579e+08            0 -2.4725579e+08    71.796572 
     791            0 -2.472558e+08            0 -2.472558e+08    71.793682 
     792            0 -2.472558e+08            0 -2.472558e+08    71.794376 
     793            0 -2.472558e+08            0 -2.472558e+08    71.790168 
     794            0 -2.472558e+08            0 -2.472558e+08    71.788141 
     795            0 -2.472558e+08            0 -2.472558e+08    71.785763 
     796            0 -2.472558e+08            0 -2.472558e+08    71.779254 
     797            0 -2.472558e+08            0 -2.472558e+08    71.771797 
     798            0 -2.4725581e+08            0 -2.4725581e+08    71.770118 
     799            0 -2.4725581e+08            0 -2.4725581e+08    71.764307 
     800            0 -2.4725581e+08            0 -2.4725581e+08     71.75827 
     801            0 -2.4725581e+08            0 -2.4725581e+08    71.755716 
     802            0 -2.4725581e+08            0 -2.4725581e+08    71.748478 
     803            0 -2.4725581e+08            0 -2.4725581e+08     71.74232 
     804            0 -2.4725581e+08            0 -2.4725581e+08    71.740845 
     805            0 -2.4725581e+08            0 -2.4725581e+08     71.73476 
     806            0 -2.4725581e+08            0 -2.4725581e+08    71.730553 
     807            0 -2.4725581e+08            0 -2.4725581e+08    71.728183 
     808            0 -2.4725582e+08            0 -2.4725582e+08    71.723074 
     809            0 -2.4725582e+08            0 -2.4725582e+08    71.719467 
     810            0 -2.4725582e+08            0 -2.4725582e+08    71.718686 
     811            0 -2.4725582e+08            0 -2.4725582e+08    71.713026 
     812            0 -2.4725582e+08            0 -2.4725582e+08    71.709398 
     813            0 -2.4725582e+08            0 -2.4725582e+08    71.706876 
     814            0 -2.4725582e+08            0 -2.4725582e+08    71.703323 
     815            0 -2.4725582e+08            0 -2.4725582e+08    71.700509 
     816            0 -2.4725582e+08            0 -2.4725582e+08    71.693785 
     817            0 -2.4725582e+08            0 -2.4725582e+08     71.68737 
     818            0 -2.4725583e+08            0 -2.4725583e+08     71.68612 
     819            0 -2.4725583e+08            0 -2.4725583e+08    71.681846 
     820            0 -2.4725583e+08            0 -2.4725583e+08    71.679082 
     821            0 -2.4725583e+08            0 -2.4725583e+08    71.675856 
     822            0 -2.4725583e+08            0 -2.4725583e+08    71.670085 
     823            0 -2.4725583e+08            0 -2.4725583e+08    71.667816 
     824            0 -2.4725583e+08            0 -2.4725583e+08    71.664592 
     825            0 -2.4725583e+08            0 -2.4725583e+08    71.660215 
     826            0 -2.4725584e+08            0 -2.4725584e+08    71.656702 
     827            0 -2.4725584e+08            0 -2.4725584e+08    71.650218 
     828            0 -2.4725584e+08            0 -2.4725584e+08    71.644055 
     829            0 -2.4725584e+08            0 -2.4725584e+08    71.639646 
     830            0 -2.4725584e+08            0 -2.4725584e+08    71.636827 
     831            0 -2.4725584e+08            0 -2.4725584e+08    71.633267 
     832            0 -2.4725585e+08            0 -2.4725585e+08    71.632005 
     833            0 -2.4725585e+08            0 -2.4725585e+08    71.630456 
     834            0 -2.4725585e+08            0 -2.4725585e+08    71.628794 
     835            0 -2.4725585e+08            0 -2.4725585e+08    71.626378 
     836            0 -2.4725585e+08            0 -2.4725585e+08    71.621561 
     837            0 -2.4725585e+08            0 -2.4725585e+08     71.61543 
     838            0 -2.4725585e+08            0 -2.4725585e+08    71.611908 
     839            0 -2.4725585e+08            0 -2.4725585e+08    71.607053 
     840            0 -2.4725585e+08            0 -2.4725585e+08    71.602388 
     841            0 -2.4725586e+08            0 -2.4725586e+08    71.597839 
     842            0 -2.4725586e+08            0 -2.4725586e+08    71.592793 
     843            0 -2.4725586e+08            0 -2.4725586e+08    71.589666 
     844            0 -2.4725586e+08            0 -2.4725586e+08    71.585675 
     845            0 -2.4725586e+08            0 -2.4725586e+08     71.58231 
     846            0 -2.4725586e+08            0 -2.4725586e+08    71.578945 
     847            0 -2.4725586e+08            0 -2.4725586e+08    71.575067 
     848            0 -2.4725586e+08            0 -2.4725586e+08    71.568153 
     849            0 -2.4725586e+08            0 -2.4725586e+08    71.564102 
     850            0 -2.4725586e+08            0 -2.4725586e+08    71.560846 
     851            0 -2.4725586e+08            0 -2.4725586e+08    71.556708 
     852            0 -2.4725586e+08            0 -2.4725586e+08    71.554175 
     853            0 -2.4725586e+08            0 -2.4725586e+08    71.549508 
     854            0 -2.4725586e+08            0 -2.4725586e+08    71.544566 
     855            0 -2.4725587e+08            0 -2.4725587e+08    71.541598 
     856            0 -2.4725587e+08            0 -2.4725587e+08    71.540186 
     857            0 -2.4725587e+08            0 -2.4725587e+08    71.536658 
     858            0 -2.4725587e+08            0 -2.4725587e+08    71.534052 
     859            0 -2.4725587e+08            0 -2.4725587e+08    71.532971 
     860            0 -2.4725587e+08            0 -2.4725587e+08     71.53123 
     861            0 -2.4725587e+08            0 -2.4725587e+08    71.530892 
     862            0 -2.4725587e+08            0 -2.4725587e+08    71.528865 
     863            0 -2.4725587e+08            0 -2.4725587e+08    71.527261 
     864            0 -2.4725587e+08            0 -2.4725587e+08    71.526427 
     865            0 -2.4725587e+08            0 -2.4725587e+08    71.523528 
     866            0 -2.4725587e+08            0 -2.4725587e+08     71.52165 
     867            0 -2.4725587e+08            0 -2.4725587e+08    71.522057 
     868            0 -2.4725587e+08            0 -2.4725587e+08    71.520206 
     869            0 -2.4725587e+08            0 -2.4725587e+08     71.51909 
     870            0 -2.4725587e+08            0 -2.4725587e+08    71.517915 
     871            0 -2.4725587e+08            0 -2.4725587e+08    71.515768 
     872            0 -2.4725587e+08            0 -2.4725587e+08    71.514707 
     873            0 -2.4725587e+08            0 -2.4725587e+08    71.513433 
     874            0 -2.4725588e+08            0 -2.4725588e+08    71.511907 
     875            0 -2.4725588e+08            0 -2.4725588e+08    71.512135 
     876            0 -2.4725588e+08            0 -2.4725588e+08    71.512428 
     877            0 -2.4725588e+08            0 -2.4725588e+08    71.509773 
     878            0 -2.4725588e+08            0 -2.4725588e+08    71.508147 
     879            0 -2.4725588e+08            0 -2.4725588e+08     71.50631 
     880            0 -2.4725588e+08            0 -2.4725588e+08    71.504971 
     881            0 -2.4725588e+08            0 -2.4725588e+08    71.503633 
     882            0 -2.4725588e+08            0 -2.4725588e+08    71.499306 
     883            0 -2.4725588e+08            0 -2.4725588e+08    71.496833 
     884            0 -2.4725588e+08            0 -2.4725588e+08    71.495727 
     885            0 -2.4725588e+08            0 -2.4725588e+08    71.492595 
     886            0 -2.4725588e+08            0 -2.4725588e+08    71.490737 
     887            0 -2.4725588e+08            0 -2.4725588e+08    71.490044 
     888            0 -2.4725588e+08            0 -2.4725588e+08    71.488076 
     889            0 -2.4725588e+08            0 -2.4725588e+08    71.487304 
     890            0 -2.4725588e+08            0 -2.4725588e+08    71.485259 
     891            0 -2.4725589e+08            0 -2.4725589e+08      71.4837 
     892            0 -2.4725589e+08            0 -2.4725589e+08    71.483163 
     893            0 -2.4725589e+08            0 -2.4725589e+08    71.481399 
     894            0 -2.4725589e+08            0 -2.4725589e+08    71.480942 
     895            0 -2.4725589e+08            0 -2.4725589e+08    71.479764 
     896            0 -2.4725589e+08            0 -2.4725589e+08    71.478278 
     897            0 -2.4725589e+08            0 -2.4725589e+08    71.475259 
     898            0 -2.4725589e+08            0 -2.4725589e+08    71.472693 
     899            0 -2.4725589e+08            0 -2.4725589e+08    71.471272 
     900            0 -2.4725589e+08            0 -2.4725589e+08    71.470004 
     901            0 -2.4725589e+08            0 -2.4725589e+08    71.469817 
     902            0 -2.4725589e+08            0 -2.4725589e+08    71.467936 
     903            0 -2.4725589e+08            0 -2.4725589e+08    71.467379 
     904            0 -2.4725589e+08            0 -2.4725589e+08    71.467026 
     905            0 -2.4725589e+08            0 -2.4725589e+08    71.465806 
     906            0 -2.4725589e+08            0 -2.4725589e+08    71.465391 
     907            0 -2.4725589e+08            0 -2.4725589e+08    71.464893 
     908            0 -2.4725589e+08            0 -2.4725589e+08    71.464724 
     909            0 -2.4725589e+08            0 -2.4725589e+08     71.46454 
     910            0 -2.472559e+08            0 -2.472559e+08     71.46489 
     911            0 -2.472559e+08            0 -2.472559e+08    71.466792 
     912            0 -2.472559e+08            0 -2.472559e+08    71.466159 
     913            0 -2.472559e+08            0 -2.472559e+08    71.466592 
     914            0 -2.472559e+08            0 -2.472559e+08    71.466734 
     915            0 -2.472559e+08            0 -2.472559e+08    71.463998 
     916            0 -2.472559e+08            0 -2.472559e+08    71.459681 
     917            0 -2.472559e+08            0 -2.472559e+08    71.457961 
     918            0 -2.472559e+08            0 -2.472559e+08    71.455291 
     919            0 -2.472559e+08            0 -2.472559e+08    71.454265 
     920            0 -2.472559e+08            0 -2.472559e+08    71.452396 
     921            0 -2.472559e+08            0 -2.472559e+08    71.450814 
     922            0 -2.472559e+08            0 -2.472559e+08    71.449951 
     923            0 -2.472559e+08            0 -2.472559e+08    71.449535 
     924            0 -2.472559e+08            0 -2.472559e+08    71.450419 
     925            0 -2.472559e+08            0 -2.472559e+08    71.449164 
     926            0 -2.472559e+08            0 -2.472559e+08    71.449546 
     927            0 -2.472559e+08            0 -2.472559e+08    71.449361 
     928            0 -2.4725591e+08            0 -2.4725591e+08    71.447396 
     929            0 -2.4725591e+08            0 -2.4725591e+08    71.445646 
     930            0 -2.4725591e+08            0 -2.4725591e+08    71.444926 
     931            0 -2.4725591e+08            0 -2.4725591e+08    71.442855 
     932            0 -2.4725591e+08            0 -2.4725591e+08    71.441698 
     933            0 -2.4725591e+08            0 -2.4725591e+08    71.441642 
     934            0 -2.4725591e+08            0 -2.4725591e+08    71.440594 
     935            0 -2.4725591e+08            0 -2.4725591e+08    71.441455 
     936            0 -2.4725591e+08            0 -2.4725591e+08    71.442525 
     937            0 -2.4725591e+08            0 -2.4725591e+08    71.443665 
     938            0 -2.4725591e+08            0 -2.4725591e+08    71.445356 
     939            0 -2.4725591e+08            0 -2.4725591e+08    71.445862 
     940            0 -2.4725591e+08            0 -2.4725591e+08    71.443619 
     941            0 -2.4725591e+08            0 -2.4725591e+08     71.44229 
     942            0 -2.4725591e+08            0 -2.4725591e+08    71.442138 
     943            0 -2.4725591e+08            0 -2.4725591e+08     71.43976 
     944            0 -2.4725591e+08            0 -2.4725591e+08    71.438912 
     945            0 -2.4725592e+08            0 -2.4725592e+08    71.437597 
     946            0 -2.4725592e+08            0 -2.4725592e+08    71.435266 
     947            0 -2.4725592e+08            0 -2.4725592e+08    71.431441 
     948            0 -2.4725592e+08            0 -2.4725592e+08    71.429058 
     949            0 -2.4725592e+08            0 -2.4725592e+08    71.425128 
     950            0 -2.4725592e+08            0 -2.4725592e+08    71.422883 
     951            0 -2.4725592e+08            0 -2.4725592e+08    71.421257 
     952            0 -2.4725592e+08            0 -2.4725592e+08    71.419417 
     953            0 -2.4725592e+08            0 -2.4725592e+08    71.417169 
     954            0 -2.4725592e+08            0 -2.4725592e+08    71.416181 
     955            0 -2.4725592e+08            0 -2.4725592e+08    71.412728 
     956            0 -2.4725592e+08            0 -2.4725592e+08    71.411412 
     957            0 -2.4725592e+08            0 -2.4725592e+08     71.40991 
     958            0 -2.4725592e+08            0 -2.4725592e+08    71.407233 
     959            0 -2.4725592e+08            0 -2.4725592e+08    71.405963 
     960            0 -2.4725592e+08            0 -2.4725592e+08    71.403327 
     961            0 -2.4725592e+08            0 -2.4725592e+08    71.401788 
     962            0 -2.4725592e+08            0 -2.4725592e+08    71.400545 
     963            0 -2.4725592e+08            0 -2.4725592e+08    71.399171 
     964            0 -2.4725592e+08            0 -2.4725592e+08    71.399183 
     965            0 -2.4725592e+08            0 -2.4725592e+08    71.397371 
     966            0 -2.4725592e+08            0 -2.4725592e+08    71.396829 
     967            0 -2.4725592e+08            0 -2.4725592e+08    71.396294 
     968            0 -2.4725592e+08            0 -2.4725592e+08    71.395662 
     969            0 -2.4725592e+08            0 -2.4725592e+08    71.395728 
     970            0 -2.4725593e+08            0 -2.4725593e+08    71.394827 
     971            0 -2.4725593e+08            0 -2.4725593e+08    71.393546 
     972            0 -2.4725593e+08            0 -2.4725593e+08      71.3916 
     973            0 -2.4725593e+08            0 -2.4725593e+08    71.389624 
     974            0 -2.4725593e+08            0 -2.4725593e+08     71.38819 
     975            0 -2.4725593e+08            0 -2.4725593e+08    71.385993 
     976            0 -2.4725593e+08            0 -2.4725593e+08    71.384208 
     977            0 -2.4725593e+08            0 -2.4725593e+08    71.383981 
     978            0 -2.4725593e+08            0 -2.4725593e+08    71.382687 
     979            0 -2.4725593e+08            0 -2.4725593e+08    71.382167 
     980            0 -2.4725593e+08            0 -2.4725593e+08      71.3806 
     981            0 -2.4725593e+08            0 -2.4725593e+08    71.380124 
     982            0 -2.4725593e+08            0 -2.4725593e+08    71.378719 
     983            0 -2.4725593e+08            0 -2.4725593e+08    71.375154 
     984            0 -2.4725593e+08            0 -2.4725593e+08    71.374461 
     985            0 -2.4725593e+08            0 -2.4725593e+08    71.373239 
     986            0 -2.4725593e+08            0 -2.4725593e+08    71.371771 
     987            0 -2.4725594e+08            0 -2.4725594e+08    71.370431 
     988            0 -2.4725594e+08            0 -2.4725594e+08    71.368138 
     989            0 -2.4725594e+08            0 -2.4725594e+08    71.365516 
     990            0 -2.4725594e+08            0 -2.4725594e+08    71.364854 
     991            0 -2.4725594e+08            0 -2.4725594e+08    71.360248 
     992            0 -2.4725594e+08            0 -2.4725594e+08     71.35787 
     993            0 -2.4725594e+08            0 -2.4725594e+08     71.35647 
     994            0 -2.4725594e+08            0 -2.4725594e+08    71.354176 
     995            0 -2.4725594e+08            0 -2.4725594e+08    71.352689 
     996            0 -2.4725594e+08            0 -2.4725594e+08    71.350692 
     997            0 -2.4725594e+08            0 -2.4725594e+08    71.347536 
     998            0 -2.4725594e+08            0 -2.4725594e+08    71.344802 
     999            0 -2.4725594e+08            0 -2.4725594e+08    71.343329 
    1000            0 -2.4725594e+08            0 -2.4725594e+08    71.339684 
[...]
    9896            0 -2.4725663e+08            0 -2.4725663e+08    2.8322426 
    9897            0 -2.4725663e+08            0 -2.4725663e+08     2.832122 
    9898            0 -2.4725663e+08            0 -2.4725663e+08    2.8322109 
    9899            0 -2.4725663e+08            0 -2.4725663e+08    2.8321191 
    9900            0 -2.4725663e+08            0 -2.4725663e+08    2.8322257 
    9901            0 -2.4725663e+08            0 -2.4725663e+08    2.8321006 
    9902            0 -2.4725663e+08            0 -2.4725663e+08     2.832154 
    9903            0 -2.4725663e+08            0 -2.4725663e+08     2.831911 
    9904            0 -2.4725663e+08            0 -2.4725663e+08    2.8319993 
    9905            0 -2.4725663e+08            0 -2.4725663e+08    2.8318397 
    9906            0 -2.4725663e+08            0 -2.4725663e+08    2.8314262 
    9907            0 -2.4725663e+08            0 -2.4725663e+08    2.8314378 
    9908            0 -2.4725663e+08            0 -2.4725663e+08    2.8313058 
    9909            0 -2.4725663e+08            0 -2.4725663e+08    2.8308882 
    9910            0 -2.4725663e+08            0 -2.4725663e+08    2.8309401 
    9911            0 -2.4725663e+08            0 -2.4725663e+08    2.8310207 
    9912            0 -2.4725663e+08            0 -2.4725663e+08    2.8308626 
    9913            0 -2.4725663e+08            0 -2.4725663e+08     2.830914 
    9914            0 -2.4725663e+08            0 -2.4725663e+08    2.8309716 
    9915            0 -2.4725663e+08            0 -2.4725663e+08    2.8307396 
    9916            0 -2.4725663e+08            0 -2.4725663e+08    2.8306435 
    9917            0 -2.4725663e+08            0 -2.4725663e+08    2.8306784 
    9918            0 -2.4725663e+08            0 -2.4725663e+08     2.830663 
    9919            0 -2.4725663e+08            0 -2.4725663e+08    2.8306254 
    9920            0 -2.4725663e+08            0 -2.4725663e+08    2.8306116 
    9921            0 -2.4725663e+08            0 -2.4725663e+08    2.8296553 
    9922            0 -2.4725663e+08            0 -2.4725663e+08    2.8282345 
    9923            0 -2.4725663e+08            0 -2.4725663e+08    2.8280889 
    9924            0 -2.4725663e+08            0 -2.4725663e+08     2.827487 
    9925            0 -2.4725663e+08            0 -2.4725663e+08    2.8274866 
    9926            0 -2.4725663e+08            0 -2.4725663e+08    2.8276049 
    9927            0 -2.4725663e+08            0 -2.4725663e+08    2.8273242 
    9928            0 -2.4725663e+08            0 -2.4725663e+08    2.8273731 
    9929            0 -2.4725663e+08            0 -2.4725663e+08    2.8274622 
    9930            0 -2.4725663e+08            0 -2.4725663e+08     2.827265 
    9931            0 -2.4725663e+08            0 -2.4725663e+08    2.8273287 
    9932            0 -2.4725663e+08            0 -2.4725663e+08    2.8274941 
    9933            0 -2.4725663e+08            0 -2.4725663e+08    2.8270494 
    9934            0 -2.4725663e+08            0 -2.4725663e+08    2.8268329 
    9935            0 -2.4725663e+08            0 -2.4725663e+08    2.8268011 
    9936            0 -2.4725663e+08            0 -2.4725663e+08    2.8269091 
    9937            0 -2.4725663e+08            0 -2.4725663e+08     2.826722 
    9938            0 -2.4725663e+08            0 -2.4725663e+08     2.826784 
    9939            0 -2.4725663e+08            0 -2.4725663e+08    2.8268747 
    9940            0 -2.4725663e+08            0 -2.4725663e+08    2.8265255 
    9941            0 -2.4725663e+08            0 -2.4725663e+08    2.8262744 
    9942            0 -2.4725663e+08            0 -2.4725663e+08    2.8262497 
    9943            0 -2.4725663e+08            0 -2.4725663e+08    2.8263679 
    9944            0 -2.4725663e+08            0 -2.4725663e+08    2.8261542 
    9945            0 -2.4725663e+08            0 -2.4725663e+08    2.8261705 
    9946            0 -2.4725663e+08            0 -2.4725663e+08    2.8262595 
    9947            0 -2.4725663e+08            0 -2.4725663e+08     2.825982 
    9948            0 -2.4725663e+08            0 -2.4725663e+08    2.8260062 
    9949            0 -2.4725663e+08            0 -2.4725663e+08    2.8261329 
    9950            0 -2.4725663e+08            0 -2.4725663e+08    2.8258804 
    9951            0 -2.4725663e+08            0 -2.4725663e+08     2.825706 
    9952            0 -2.4725663e+08            0 -2.4725663e+08    2.8259139 
    9953            0 -2.4725663e+08            0 -2.4725663e+08    2.8239923 
    9954            0 -2.4725663e+08            0 -2.4725663e+08    2.8236127 
    9955            0 -2.4725663e+08            0 -2.4725663e+08    2.8235738 
    9956            0 -2.4725663e+08            0 -2.4725663e+08    2.8235763 
    9957            0 -2.4725663e+08            0 -2.4725663e+08    2.8236438 
    9958            0 -2.4725663e+08            0 -2.4725663e+08    2.8233851 
    9959            0 -2.4725663e+08            0 -2.4725663e+08    2.8234278 
    9960            0 -2.4725663e+08            0 -2.4725663e+08    2.8235173 
    9961            0 -2.4725663e+08            0 -2.4725663e+08     2.823087 
    9962            0 -2.4725663e+08            0 -2.4725663e+08    2.8229292 
    9963            0 -2.4725663e+08            0 -2.4725663e+08    2.8229317 
    9964            0 -2.4725663e+08            0 -2.4725663e+08    2.8229956 
    9965            0 -2.4725663e+08            0 -2.4725663e+08    2.8230742 
    9966            0 -2.4725663e+08            0 -2.4725663e+08    2.8227211 
    9967            0 -2.4725663e+08            0 -2.4725663e+08      2.82224 
    9968            0 -2.4725663e+08            0 -2.4725663e+08    2.8220751 
    9969            0 -2.4725663e+08            0 -2.4725663e+08    2.8219032 
    9970            0 -2.4725663e+08            0 -2.4725663e+08    2.8219787 
    9971            0 -2.4725663e+08            0 -2.4725663e+08    2.8216448 
    9972            0 -2.4725663e+08            0 -2.4725663e+08    2.8215338 
    9973            0 -2.4725663e+08            0 -2.4725663e+08    2.8215573 
    9974            0 -2.4725663e+08            0 -2.4725663e+08    2.8216451 
    9975            0 -2.4725663e+08            0 -2.4725663e+08    2.8214903 
    9976            0 -2.4725663e+08            0 -2.4725663e+08    2.8215615 
    9977            0 -2.4725663e+08            0 -2.4725663e+08    2.8216018 
    9978            0 -2.4725663e+08            0 -2.4725663e+08    2.8212017 
    9979            0 -2.4725663e+08            0 -2.4725663e+08    2.8210643 
    9980            0 -2.4725663e+08            0 -2.4725663e+08    2.8211177 
    9981            0 -2.4725663e+08            0 -2.4725663e+08    2.8211103 
    9982            0 -2.4725663e+08            0 -2.4725663e+08    2.8211924 
    9983            0 -2.4725663e+08            0 -2.4725663e+08    2.8209372 
    9984            0 -2.4725663e+08            0 -2.4725663e+08    2.8206698 
    9985            0 -2.4725663e+08            0 -2.4725663e+08    2.8202622 
    9986            0 -2.4725663e+08            0 -2.4725663e+08    2.8185601 
    9987            0 -2.4725663e+08            0 -2.4725663e+08    2.8183441 
    9988            0 -2.4725663e+08            0 -2.4725663e+08    2.8170299 
    9989            0 -2.4725663e+08            0 -2.4725663e+08    2.8167159 
    9990            0 -2.4725663e+08            0 -2.4725663e+08    2.8163765 
    9991            0 -2.4725663e+08            0 -2.4725663e+08    2.8159901 
    9992            0 -2.4725663e+08            0 -2.4725663e+08    2.8155363 
    9993            0 -2.4725663e+08            0 -2.4725663e+08    2.8148529 
    9994            0 -2.4725663e+08            0 -2.4725663e+08    2.8146941 
    9995            0 -2.4725663e+08            0 -2.4725663e+08    2.8145756 
    9996            0 -2.4725663e+08            0 -2.4725663e+08     2.814022 
    9997            0 -2.4725663e+08            0 -2.4725663e+08    2.8136815 
    9998            0 -2.4725663e+08            0 -2.4725663e+08    2.8137398 
    9999            0 -2.4725663e+08            0 -2.4725663e+08    2.8133635 
   10000            0 -2.4725663e+08            0 -2.4725663e+08    2.8133057 
   10001            0 -2.4725663e+08            0 -2.4725663e+08    2.8133771 
   10002            0 -2.4725663e+08            0 -2.4725663e+08    2.8131841 
   10003            0 -2.4725663e+08            0 -2.4725663e+08    2.8132347 
   10004            0 -2.4725663e+08            0 -2.4725663e+08    2.8132846 
   10005            0 -2.4725663e+08            0 -2.4725663e+08    2.8127987 
   10006            0 -2.4725663e+08            0 -2.4725663e+08    2.8118296 
   10007            0 -2.4725663e+08            0 -2.4725663e+08    2.8115573 
   10008            0 -2.4725663e+08            0 -2.4725663e+08    2.8113706 
   10009            0 -2.4725663e+08            0 -2.4725663e+08    2.8114373 
   10010            0 -2.4725663e+08            0 -2.4725663e+08    2.8111229 
   10011            0 -2.4725663e+08            0 -2.4725663e+08    2.8111634 
   10012            0 -2.4725663e+08            0 -2.4725663e+08    2.8110068 
   10013            0 -2.4725663e+08            0 -2.4725663e+08    2.8110658 
   10014            0 -2.4725663e+08            0 -2.4725663e+08    2.8106759 
   10015            0 -2.4725663e+08            0 -2.4725663e+08    2.8103598 
   10016            0 -2.4725663e+08            0 -2.4725663e+08    2.8100268 
   10017            0 -2.4725663e+08            0 -2.4725663e+08    2.8092577 
   10018            0 -2.4725663e+08            0 -2.4725663e+08     2.808995 
   10019            0 -2.4725663e+08            0 -2.4725663e+08    2.8091182 
   10020            0 -2.4725663e+08            0 -2.4725663e+08    2.8084252 
   10021            0 -2.4725663e+08            0 -2.4725663e+08    2.8082059 
   10022            0 -2.4725663e+08            0 -2.4725663e+08    2.8081036 
   10023            0 -2.4725663e+08            0 -2.4725663e+08    2.8081212 
   10024            0 -2.4725663e+08            0 -2.4725663e+08    2.8081947 
   10025            0 -2.4725663e+08            0 -2.4725663e+08    2.8079147 
   10026            0 -2.4725663e+08            0 -2.4725663e+08    2.8079063 
   10027            0 -2.4725663e+08            0 -2.4725663e+08    2.8080203 
   10028            0 -2.4725663e+08            0 -2.4725663e+08    2.8075989 
   10029            0 -2.4725663e+08            0 -2.4725663e+08    2.8075278 
   10030            0 -2.4725663e+08            0 -2.4725663e+08    2.8075336 
   10031            0 -2.4725663e+08            0 -2.4725663e+08    2.8075836 
   10032            0 -2.4725663e+08            0 -2.4725663e+08    2.8076661 
   10033            0 -2.4725663e+08            0 -2.4725663e+08    2.8074535 
   10034            0 -2.4725663e+08            0 -2.4725663e+08    2.8073625 
   10035            0 -2.4725663e+08            0 -2.4725663e+08    2.8075656 
   10036            0 -2.4725663e+08            0 -2.4725663e+08    2.8061504 
   10037            0 -2.4725663e+08            0 -2.4725663e+08    2.8057518 
   10038            0 -2.4725663e+08            0 -2.4725663e+08    2.8055752 
   10039            0 -2.4725663e+08            0 -2.4725663e+08    2.8055388 
   10040            0 -2.4725663e+08            0 -2.4725663e+08    2.8055946 
   10041            0 -2.4725663e+08            0 -2.4725663e+08    2.8054172 
   10042            0 -2.4725663e+08            0 -2.4725663e+08     2.805472 
   10043            0 -2.4725663e+08            0 -2.4725663e+08    2.8055552 
   10044            0 -2.4725663e+08            0 -2.4725663e+08    2.8052013 
   10045            0 -2.4725663e+08            0 -2.4725663e+08    2.8049817 
   10046            0 -2.4725663e+08            0 -2.4725663e+08    2.8049016 
   10047            0 -2.4725663e+08            0 -2.4725663e+08    2.8049461 
   10048            0 -2.4725663e+08            0 -2.4725663e+08    2.8050257 
   10049            0 -2.4725663e+08            0 -2.4725663e+08    2.8047694 
   10050            0 -2.4725663e+08            0 -2.4725663e+08    2.8045002 
   10051            0 -2.4725663e+08            0 -2.4725663e+08    2.8045275 
   10052            0 -2.4725663e+08            0 -2.4725663e+08     2.804267 
   10053            0 -2.4725663e+08            0 -2.4725663e+08      2.80428 
   10054            0 -2.4725663e+08            0 -2.4725663e+08    2.8038378 
   10055            0 -2.4725663e+08            0 -2.4725663e+08    2.8036684 
   10056            0 -2.4725663e+08            0 -2.4725663e+08    2.8036671 
   10057            0 -2.4725663e+08            0 -2.4725663e+08    2.8037229 
   10058            0 -2.4725663e+08            0 -2.4725663e+08    2.8038529 
   10059            0 -2.4725663e+08            0 -2.4725663e+08    2.8035961 
   10060            0 -2.4725663e+08            0 -2.4725663e+08    2.8035769 
   10061            0 -2.4725663e+08            0 -2.4725663e+08    2.8036711 
   10062            0 -2.4725663e+08            0 -2.4725663e+08    2.8032494 
   10063            0 -2.4725663e+08            0 -2.4725663e+08    2.8031154 
   10064            0 -2.4725663e+08            0 -2.4725663e+08    2.8031989 
   10065            0 -2.4725663e+08            0 -2.4725663e+08    2.8029928 
   10066            0 -2.4725663e+08            0 -2.4725663e+08     2.803038 
   10067            0 -2.4725663e+08            0 -2.4725663e+08    2.8031255 
   10068            0 -2.4725663e+08            0 -2.4725663e+08    2.8027675 
   10069            0 -2.4725663e+08            0 -2.4725663e+08     2.802495 
   10070            0 -2.4725663e+08            0 -2.4725663e+08    2.8024457 
   10071            0 -2.4725663e+08            0 -2.4725663e+08    2.8025384 
   10072            0 -2.4725663e+08            0 -2.4725663e+08    2.8023814 
   10073            0 -2.4725663e+08            0 -2.4725663e+08    2.8024315 
   10074            0 -2.4725663e+08            0 -2.4725663e+08    2.8025008 
   10075            0 -2.4725663e+08            0 -2.4725663e+08     2.802026 
   10076            0 -2.4725663e+08            0 -2.4725663e+08    2.8014383 
Loop time of 794.158 on 2560 procs for 5008 steps with 60020000 atoms

100.0% CPU use with 2560 MPI tasks x no OpenMP threads

Minimization stats:
  Stopping criterion = max force evaluations
  Energy initial, next-to-last, final = 
        -247256531.274     -247256632.093     -247256632.132
  Force two-norm initial, final = 1.41577 1.07754
  Force max component initial, final = 0.343988 0.150701
  Final line search alpha, max atom move = 0.48823 0.0735769
  Iterations, force evaluations = 5008 10000

MPI task timing breakdown:
Section |  min time  |  avg time  |  max time  |%varavg| %total
---------------------------------------------------------------
Pair    | 0.0016856  | 502.5      | 750        |1269.7 | 63.27
Neigh   | 9.7513e-05 | 0.74695    | 1.101      |  50.2 |  0.09
Comm    | 0.0020199  | 30.58      | 399.2      | 824.2 |  3.85
Output  | 2.7533     | 2.776      | 2.8035     |   0.6 |  0.35
Modify  | 0          | 0          | 0          |   0.0 |  0.00
Other   |            | 257.6      |            |       | 32.43

Nlocal:    23445.3 ave 32194 max 0 min
Histogram: 640 0 0 0 0 0 0 0 0 1920
Nghost:    18785.3 ave 25738 max 0 min
Histogram: 608 32 0 0 0 0 0 16 16 1888
Neighs:    1.96812e+06 ave 2.71151e+06 max 0 min
Histogram: 640 0 0 0 0 0 0 0 1 1919

Total # of neighbors = 5.0384e+09
Ave neighs/atom = 83.9453
Neighbor list builds = 15
Dangerous builds = 0
System init for write_data ...
ERROR: Variable f2: Invalid thermo keyword 'F2_REPLACE_YAML' in variable formula (../variable.cpp:2110)
Last command: variable T2 equal 1000/${f2}
srun: error: nid00964: tasks 120-159: Exited with exit code 1
srun: launch/slurm: _step_signal: Terminating StepId=826877.0
srun: error: nid00965: tasks 160-199: Exited with exit code 1
srun: error: nid00987: tasks 1040-1079: Exited with exit code 1
srun: error: nid01022: tasks 2440-2479: Exited with exit code 1
srun: error: nid01001: tasks 1600-1639: Exited with exit code 1
srun: error: nid01021: tasks 2400-2439: Exited with exit code 1
srun: error: nid00973: tasks 480-519: Exited with exit code 1
srun: error: nid01020: tasks 2360-2399: Exited with exit code 1
srun: error: nid01015: tasks 2160-2199: Exited with exit code 1
srun: error: nid00972: tasks 440-479: Exited with exit code 1
srun: error: nid00983: tasks 880-919: Exited with exit code 1
srun: error: nid01019: tasks 2320-2359: Exited with exit code 1
srun: error: nid00968: tasks 280-319: Exited with exit code 1
srun: error: nid00976: tasks 600-639: Exited with exit code 1
srun: error: nid00969: tasks 320-359: Exited with exit code 1
srun: error: nid01013: tasks 2080-2119: Exited with exit code 1
srun: error: nid00967: tasks 240-279: Exited with exit code 1
srun: error: nid01004: tasks 1720-1759: Exited with exit code 1
srun: error: nid01017: tasks 2240-2279: Exited with exit code 1
srun: error: nid00998: tasks 1480-1519: Exited with exit code 1
srun: error: nid00980: tasks 760-799: Exited with exit code 1
srun: error: nid01002: tasks 1640-1679: Exited with exit code 1
srun: error: nid00970: tasks 360-399: Exited with exit code 1
srun: error: nid01018: tasks 2280-2319: Exited with exit code 1
srun: error: nid00979: tasks 720-759: Exited with exit code 1
srun: error: nid00990: tasks 1160-1199: Exited with exit code 1
srun: error: nid01003: tasks 1680-1719: Exited with exit code 1
srun: error: nid01024: tasks 2520-2559: Exited with exit code 1
srun: error: nid00963: tasks 80-119: Exited with exit code 1
srun: error: nid00962: tasks 40-79: Exited with exit code 1
srun: error: nid00974: tasks 520-559: Exited with exit code 1
srun: error: nid00966: tasks 200-239: Exited with exit code 1
srun: error: nid00978: tasks 680-719: Exited with exit code 1
srun: error: nid00985: tasks 960-999: Exited with exit code 1
srun: error: nid00988: tasks 1080-1119: Exited with exit code 1
srun: error: nid01014: tasks 2120-2159: Exited with exit code 1
srun: error: nid00997: tasks 1440-1479: Exited with exit code 1
srun: error: nid00981: tasks 800-839: Exited with exit code 1
srun: error: nid01009: tasks 1920-1959: Exited with exit code 1
srun: error: nid00989: tasks 1120-1159: Exited with exit code 1
srun: error: nid01005: tasks 1760-1799: Exited with exit code 1
srun: error: nid00996: tasks 1400-1439: Exited with exit code 1
srun: error: nid01008: tasks 1880-1919: Exited with exit code 1
srun: error: nid00977: tasks 640-679: Exited with exit code 1
srun: error: nid01007: tasks 1840-1879: Exited with exit code 1
srun: error: nid01016: tasks 2200-2239: Exited with exit code 1
srun: error: nid00991: tasks 1200-1239: Exited with exit code 1
srun: error: nid00993: tasks 1280-1319: Exited with exit code 1
srun: error: nid00994: tasks 1320-1359: Exited with exit code 1
srun: error: nid01006: tasks 1800-1839: Exited with exit code 1
srun: error: nid00975: tasks 560-599: Exited with exit code 1
srun: error: nid00992: tasks 1240-1279: Exited with exit code 1
srun: error: nid00995: tasks 1360-1399: Exited with exit code 1
srun: error: nid00984: tasks 920-959: Exited with exit code 1
srun: error: nid01000: tasks 1560-1599: Exited with exit code 1
srun: error: nid01012: tasks 2040-2079: Exited with exit code 1
srun: error: nid01023: tasks 2480-2519: Exited with exit code 1
srun: error: nid00971: tasks 400-439: Exited with exit code 1
srun: error: nid00982: tasks 840-879: Exited with exit code 1
srun: error: nid01011: tasks 2000-2039: Exited with exit code 1
srun: error: nid01010: tasks 1960-1999: Exited with exit code 1
srun: error: nid00986: tasks 1000-1039: Exited with exit code 1
srun: error: nid00999: tasks 1520-1559: Exited with exit code 1
srun: error: nid00961: tasks 0-39: Exited with exit code 1
