# Fe

0 atoms
9 atom types
0   459.707164 xlo xhi
0    57.106480 ylo yhi
0    57.106480 zlo zhi

Atoms

