LAMMPS (29 Sep 2021 - Update 1)
KOKKOS mode is enabled (../kokkos.cpp:97)
  will use up to 2 GPU(s) per node
  using 1 OpenMP thread(s) per MPI task
Reading data file ...
  orthogonal box = (0.0000000 0.0000000 0.0000000) to (436.86457 57.106480 57.106480)
  16 by 2 by 2 MPI processor grid
  reading atoms ...
  120800 atoms
  read_data CPU = 0.213 seconds
WARNING: Using 'neigh_modify every 1 delay 0 check yes' setting during minimization (../min.cpp:188)
Neighbor list info ...
  update every 1 steps, delay 0 steps, check yes
  max neighbors/atom: 2000, page size: 100000
  master list distance cutoff = 7.6
  ghost atom cutoff = 7.6
  binsize = 7.6, bins = 58 8 8
  1 neighbor lists, perpetual/occasional/extra = 1 0 0
  (1) pair eam/alloy/kk, perpetual
      attributes: full, newton off, kokkos_device
      pair build: full/bin/kk/device
      stencil: full/bin/3d
      bin: kk/device
Setting up cg/kk style minimization ...
  Unit style    : metal
  Current step  : 0
WARNING: Fixes cannot yet send exchange data in Kokkos communication, switching to classic exchange/border communication (../comm_kokkos.cpp:581)
Per MPI rank memory allocation (min/avg/max) = 2.301 | 2.470 | 2.508 Mbytes
Step Temp E_pair E_mol TotEng Press 
       0            0   -497261.36            0   -497261.36   -502.20467 
     132            0    -497263.4            0    -497263.4   -621.23749 
Loop time of 14.6657 on 64 procs for 132 steps with 120800 atoms

84.0% CPU use with 64 MPI tasks x 1 OpenMP threads

Minimization stats:
  Stopping criterion = energy tolerance
  Energy initial, next-to-last, final = 
     -497261.355337392  -497263.401315488  -497263.401315488
  Force two-norm initial, final = 7.1080974 1.4122887e-05
  Force max component initial, final = 0.19826945 1.9884748e-07
  Final line search alpha, max atom move = 1.0000000 1.9884748e-07
  Iterations, force evaluations = 132 264

MPI task timing breakdown:
Section |  min time  |  avg time  |  max time  |%varavg| %total
---------------------------------------------------------------
Pair    | 8.0847     | 8.5869     | 9.2531     |   7.9 | 58.55
Neigh   | 0          | 0          | 0          |   0.0 |  0.00
Comm    | 3.3467     | 3.4983     | 3.7031     |   3.7 | 23.85
Output  | 0          | 0          | 0          |   0.0 |  0.00
Modify  | 0          | 0          | 0          |   0.0 |  0.00
Other   |            | 2.58       |            |       | 17.60

Nlocal:        1887.50 ave        2000 max        1600 min
Histogram: 4 0 0 0 0 0 0 56 0 4
Nghost:        5147.12 ave        5315 max        4353 min
Histogram: 4 0 0 4 0 0 0 16 4 36
Neighs:         0.00000 ave           0 max           0 min
Histogram: 64 0 0 0 0 0 0 0 0 0
FullNghs:      315025.0 ave      336000 max      252200 min
Histogram: 4 0 0 0 0 0 4 52 0 4

Total # of neighbors = 20161600
Ave neighs/atom = 166.90066
Neighbor list builds = 0
Dangerous builds = 0
System init for write_data ...
Initial Length, L0: 436.864572
Setting up Verlet run ...
  Unit style    : metal
  Current step  : 0
  Time step     : 0.001
Per MPI rank memory allocation (min/avg/max) = 1.901 | 2.023 | 2.050 Mbytes
Step v_strain Temp v_p2 v_p3 v_p4 KinEng PotEng Press 
       0            0            0 -1.2796052e-08   0.09318563   0.09318563            0    -497263.4   -621.23749 
    1000         0.01   0.59267534    2.1242409    1.3240854    1.3240854     9.254327   -497173.46   -15908.039 
Loop time of 55.8865 on 64 procs for 1000 steps with 120800 atoms

Performance: 1.546 ns/day, 15.524 hours/ns, 17.893 timesteps/s
84.0% CPU use with 64 MPI tasks x 1 OpenMP threads

MPI task timing breakdown:
Section |  min time  |  avg time  |  max time  |%varavg| %total
---------------------------------------------------------------
Pair    | 26.389     | 29.338     | 36.227     |  56.8 | 52.50
Neigh   | 0.037361   | 0.057032   | 0.075779   |   3.8 |  0.10
Comm    | 12.662     | 14.376     | 22.023     |  64.7 | 25.72
Output  | 0.0046556  | 0.0047405  | 0.0047459  |   0.0 |  0.01
Modify  | 4.4257     | 7.1214     | 8.6217     |  45.9 | 12.74
Other   |            | 4.99       |            |       |  8.93

Nlocal:        1887.50 ave        2006 max        1588 min
Histogram: 4 0 0 0 0 0 0 56 0 4
Nghost:        5147.12 ave        5325 max        4344 min
Histogram: 4 0 0 4 0 0 0 16 4 36
Neighs:         0.00000 ave           0 max           0 min
Histogram: 64 0 0 0 0 0 0 0 0 0
FullNghs:      314975.0 ave      337008 max      249694 min
Histogram: 4 0 0 0 0 1 3 32 20 4

Total # of neighbors = 20158400
Ave neighs/atom = 166.87417
Neighbor list builds = 4
Dangerous builds = 0
All done
Total wall time: 0:01:21
