LAMMPS (29 Sep 2021 - Update 1)
KOKKOS mode is enabled (../kokkos.cpp:97)
  will use up to 2 GPU(s) per node
  using 1 OpenMP thread(s) per MPI task
Reading data file ...
  orthogonal box = (0.0000000 0.0000000 0.0000000) to (436.86457 57.106480 57.106480)
  16 by 2 by 2 MPI processor grid
  reading atoms ...
  120800 atoms
  read_data CPU = 0.262 seconds
WARNING: Using 'neigh_modify every 1 delay 0 check yes' setting during minimization (../min.cpp:188)
Neighbor list info ...
  update every 1 steps, delay 0 steps, check yes
  max neighbors/atom: 2000, page size: 100000
  master list distance cutoff = 7.6
  ghost atom cutoff = 7.6
  binsize = 7.6, bins = 58 8 8
  1 neighbor lists, perpetual/occasional/extra = 1 0 0
  (1) pair eam/alloy/kk, perpetual
      attributes: full, newton off, kokkos_device
      pair build: full/bin/kk/device
      stencil: full/bin/3d
      bin: kk/device
Setting up cg/kk style minimization ...
  Unit style    : metal
  Current step  : 0
WARNING: Fixes cannot yet send exchange data in Kokkos communication, switching to classic exchange/border communication (../comm_kokkos.cpp:581)
Per MPI rank memory allocation (min/avg/max) = 2.301 | 2.470 | 2.508 Mbytes
Step Temp E_pair E_mol TotEng Press 
       0            0   -497261.36            0   -497261.36   -502.20467 
     132            0    -497263.4            0    -497263.4   -621.23749 
Loop time of 14.7023 on 64 procs for 132 steps with 120800 atoms

83.3% CPU use with 64 MPI tasks x 1 OpenMP threads

Minimization stats:
  Stopping criterion = energy tolerance
  Energy initial, next-to-last, final = 
     -497261.355337392  -497263.401315488  -497263.401315488
  Force two-norm initial, final = 7.1080974 1.4069574e-05
  Force max component initial, final = 0.19826945 1.9024975e-07
  Final line search alpha, max atom move = 1.0000000 1.9024975e-07
  Iterations, force evaluations = 132 264

MPI task timing breakdown:
Section |  min time  |  avg time  |  max time  |%varavg| %total
---------------------------------------------------------------
Pair    | 8.04       | 8.5825     | 9.0117     |   7.7 | 58.38
Neigh   | 0          | 0          | 0          |   0.0 |  0.00
Comm    | 3.338      | 3.5118     | 3.6647     |   3.5 | 23.89
Output  | 0          | 0          | 0          |   0.0 |  0.00
Modify  | 0          | 0          | 0          |   0.0 |  0.00
Other   |            | 2.608      |            |       | 17.74

Nlocal:        1887.50 ave        2000 max        1600 min
Histogram: 4 0 0 0 0 0 0 56 0 4
Nghost:        5147.12 ave        5315 max        4353 min
Histogram: 4 0 0 4 0 0 0 16 4 36
Neighs:         0.00000 ave           0 max           0 min
Histogram: 64 0 0 0 0 0 0 0 0 0
FullNghs:      315025.0 ave      336000 max      252200 min
Histogram: 4 0 0 0 0 0 4 52 0 4

Total # of neighbors = 20161600
Ave neighs/atom = 166.90066
Neighbor list builds = 0
Dangerous builds = 0
System init for write_data ...
Initial Length, L0: 436.864572
Setting up Verlet run ...
  Unit style    : metal
  Current step  : 0
  Time step     : 0.001
ERROR on proc 31: Variable strain: Log of zero/negative value in variable formula (../variable.cpp:3400)
ERROR on proc 0: Variable strain: Log of zero/negative value in variable formula (../variable.cpp:3400)
ERROR on proc 2: Variable strain: Log of zero/negative value in variable formula (../variable.cpp:3400)
ERROR on proc 5: Variable strain: Log of zero/negative value in variable formula (../variable.cpp:3400)
ERROR on proc 6: Variable strain: Log of zero/negative value in variable formula (../variable.cpp:3400)
ERROR on proc 12: Variable strain: Log of zero/negative value in variable formula (../variable.cpp:3400)
ERROR on proc 15: Variable strain: Log of zero/negative value in variable formula (../variable.cpp:3400)
ERROR on proc 18: Variable strain: Log of zero/negative value in variable formula (../variable.cpp:3400)
ERROR on proc 19: Variable strain: Log of zero/negative value in variable formula (../variable.cpp:3400)
ERROR on proc 20: Variable strain: Log of zero/negative value in variable formula (../variable.cpp:3400)
--------------------------------------------------------------------------
MPI_ABORT was invoked on rank 12 in communicator MPI_COMM_WORLD
with errorcode 1.

NOTE: invoking MPI_ABORT causes Open MPI to kill all MPI processes.
You may or may not see output from other processes, depending on
exactly when Open MPI kills them.
--------------------------------------------------------------------------
ERROR on proc 21: Variable strain: Log of zero/negative value in variable formula (../variable.cpp:3400)
ERROR on proc 23: Variable strain: Log of zero/negative value in variable formula (../variable.cpp:3400)
ERROR on proc 26: Variable strain: Log of zero/negative value in variable formula (../variable.cpp:3400)
ERROR on proc 27: Variable strain: Log of zero/negative value in variable formula (../variable.cpp:3400)
ERROR on proc 28: Variable strain: Log of zero/negative value in variable formula (../variable.cpp:3400)
ERROR on proc 7: Variable strain: Log of zero/negative value in variable formula (../variable.cpp:3400)
ERROR on proc 8: Variable strain: Log of zero/negative value in variable formula (../variable.cpp:3400)
ERROR on proc 9: Variable strain: Log of zero/negative value in variable formula (../variable.cpp:3400)
ERROR on proc 10: Variable strain: Log of zero/negative value in variable formula (../variable.cpp:3400)
ERROR on proc 11: Variable strain: Log of zero/negative value in variable formula (../variable.cpp:3400)
ERROR on proc 13: Variable strain: Log of zero/negative value in variable formula (../variable.cpp:3400)
ERROR on proc 14: Variable strain: Log of zero/negative value in variable formula (../variable.cpp:3400)
ERROR on proc 16: Variable strain: Log of zero/negative value in variable formula (../variable.cpp:3400)
ERROR on proc 17: Variable strain: Log of zero/negative value in variable formula (../variable.cpp:3400)
ERROR on proc 22: Variable strain: Log of zero/negative value in variable formula (../variable.cpp:3400)
ERROR on proc 24: Variable strain: Log of zero/negative value in variable formula (../variable.cpp:3400)
ERROR on proc 25: Variable strain: Log of zero/negative value in variable formula (../variable.cpp:3400)
ERROR on proc 29: Variable strain: Log of zero/negative value in variable formula (../variable.cpp:3400)
ERROR on proc 30: Variable strain: Log of zero/negative value in variable formula (../variable.cpp:3400)
ERROR on proc 1: Variable strain: Log of zero/negative value in variable formula (../variable.cpp:3400)
ERROR on proc 3: Variable strain: Log of zero/negative value in variable formula (../variable.cpp:3400)
ERROR on proc 4: Variable strain: Log of zero/negative value in variable formula (../variable.cpp:3400)
ERROR on proc 47: Variable strain: Log of zero/negative value in variable formula (../variable.cpp:3400)
ERROR on proc 50: Variable strain: Log of zero/negative value in variable formula (../variable.cpp:3400)
ERROR on proc 51: Variable strain: Log of zero/negative value in variable formula (../variable.cpp:3400)
ERROR on proc 52: Variable strain: Log of zero/negative value in variable formula (../variable.cpp:3400)
ERROR on proc 53: Variable strain: Log of zero/negative value in variable formula (../variable.cpp:3400)
ERROR on proc 54: Variable strain: Log of zero/negative value in variable formula (../variable.cpp:3400)
ERROR on proc 55: Variable strain: Log of zero/negative value in variable formula (../variable.cpp:3400)
ERROR on proc 58: Variable strain: Log of zero/negative value in variable formula (../variable.cpp:3400)
ERROR on proc 59: Variable strain: Log of zero/negative value in variable formula (../variable.cpp:3400)
ERROR on proc 60: Variable strain: Log of zero/negative value in variable formula (../variable.cpp:3400)
ERROR on proc 61: Variable strain: Log of zero/negative value in variable formula (../variable.cpp:3400)
ERROR on proc 35: Variable strain: Log of zero/negative value in variable formula (../variable.cpp:3400)
ERROR on proc 43: Variable strain: Log of zero/negative value in variable formula (../variable.cpp:3400)
ERROR on proc 56: Variable strain: Log of zero/negative value in variable formula (../variable.cpp:3400)
ERROR on proc 57: Variable strain: Log of zero/negative value in variable formula (../variable.cpp:3400)
ERROR on proc 62: Variable strain: Log of zero/negative value in variable formula (../variable.cpp:3400)
ERROR on proc 63: Variable strain: Log of zero/negative value in variable formula (../variable.cpp:3400)
ERROR on proc 32: Variable strain: Log of zero/negative value in variable formula (../variable.cpp:3400)
ERROR on proc 33: Variable strain: Log of zero/negative value in variable formula (../variable.cpp:3400)
ERROR on proc 34: Variable strain: Log of zero/negative value in variable formula (../variable.cpp:3400)
ERROR on proc 36: Variable strain: Log of zero/negative value in variable formula (../variable.cpp:3400)
ERROR on proc 37: Variable strain: Log of zero/negative value in variable formula (../variable.cpp:3400)
ERROR on proc 38: Variable strain: Log of zero/negative value in variable formula (../variable.cpp:3400)
ERROR on proc 39: Variable strain: Log of zero/negative value in variable formula (../variable.cpp:3400)
ERROR on proc 40: Variable strain: Log of zero/negative value in variable formula (../variable.cpp:3400)
ERROR on proc 41: Variable strain: Log of zero/negative value in variable formula (../variable.cpp:3400)
ERROR on proc 42: Variable strain: Log of zero/negative value in variable formula (../variable.cpp:3400)
ERROR on proc 44: Variable strain: Log of zero/negative value in variable formula (../variable.cpp:3400)
ERROR on proc 45: Variable strain: Log of zero/negative value in variable formula (../variable.cpp:3400)
ERROR on proc 46: Variable strain: Log of zero/negative value in variable formula (../variable.cpp:3400)
ERROR on proc 48: Variable strain: Log of zero/negative value in variable formula (../variable.cpp:3400)
ERROR on proc 49: Variable strain: Log of zero/negative value in variable formula (../variable.cpp:3400)
[r232n03:112213] 63 more processes have sent help message help-mpi-api.txt / mpi-abort
[r232n03:112213] Set MCA parameter "orte_base_help_aggregate" to 0 to see all help / error messages
