LAMMPS (14 Dec 2021)
Reading data file ...
  orthogonal box = (-1427.662 0 0) to (3372.1376 57.10648 57.10648)
  128 by 1 by 1 MPI processor grid
  reading atoms ...
  544000 atoms
  read_data CPU = 1.121 seconds
800 atoms in group source
800 atoms in group detector
400 atoms in group edge
400 atoms in group edge_buf
180800 atoms in group buffer
180000 atoms in group longage
WARNING: Using 'neigh_modify every 1 delay 0 check yes' setting during minimization (../min.cpp:187)
Neighbor list info ...
  update every 1 steps, delay 0 steps, check yes
  max neighbors/atom: 2000, page size: 100000
  master list distance cutoff = 7.6
  ghost atom cutoff = 7.6
  binsize = 3.8, bins = 1264 16 16
  1 neighbor lists, perpetual/occasional/extra = 1 0 0
  (1) pair eam/alloy, perpetual
      attributes: half, newton on
      pair build: half/bin/atomonly/newton
      stencil: half/bin/3d
      bin: standard
Setting up cg style minimization ...
  Unit style    : metal
  Current step  : 0
Per MPI rank memory allocation (min/avg/max) = 4.334 | 7.338 | 12.04 Mbytes
Step Temp E_pair E_mol TotEng Press 
       0            0   -2240406.8            0   -2240406.8   -153.35367 
       1            0   -2240478.4            0   -2240478.4   -270.85259 
       2            0   -2240499.7            0   -2240499.7   -298.63695 
       3            0   -2240505.3            0   -2240505.3   -289.02797 
       4            0   -2240506.3            0   -2240506.3   -289.57193 
       5            0   -2240506.8            0   -2240506.8   -293.56758 
       6            0     -2240507            0     -2240507   -295.69174 
       7            0   -2240507.1            0   -2240507.1   -296.66861 
       8            0   -2240507.1            0   -2240507.1   -297.24557 
       9            0   -2240507.2            0   -2240507.2   -296.88081 
      10            0   -2240507.2            0   -2240507.2   -296.35596 
      11            0   -2240507.2            0   -2240507.2    -296.0596 
      12            0   -2240507.2            0   -2240507.2   -295.80168 
      13            0   -2240507.2            0   -2240507.2   -295.69353 
      14            0   -2240507.2            0   -2240507.2   -295.65533 
      15            0   -2240507.2            0   -2240507.2   -295.44005 
      16            0   -2240507.3            0   -2240507.3   -295.07978 
      17            0   -2240507.3            0   -2240507.3   -294.64842 
      18            0   -2240507.3            0   -2240507.3    -294.1729 
      19            0   -2240507.3            0   -2240507.3   -293.76951 
      20            0   -2240507.3            0   -2240507.3   -293.42069 
      21            0   -2240507.3            0   -2240507.3   -293.06707 
      22            0   -2240507.3            0   -2240507.3   -292.70536 
      23            0   -2240507.3            0   -2240507.3   -292.23512 
      24            0   -2240507.3            0   -2240507.3   -291.59278 
      25            0   -2240507.3            0   -2240507.3   -290.93736 
      26            0   -2240507.3            0   -2240507.3   -290.26603 
      27            0   -2240507.3            0   -2240507.3   -289.55067 
      28            0   -2240507.3            0   -2240507.3   -288.92978 
      29            0   -2240507.3            0   -2240507.3   -288.39587 
      30            0   -2240507.3            0   -2240507.3   -287.85051 
      31            0   -2240507.3            0   -2240507.3   -287.32672 
      32            0   -2240507.3            0   -2240507.3   -286.85049 
      33            0   -2240507.3            0   -2240507.3   -286.39399 
      34            0   -2240507.3            0   -2240507.3   -285.97171 
      35            0   -2240507.3            0   -2240507.3   -285.60648 
      36            0   -2240507.3            0   -2240507.3   -285.23099 
      37            0   -2240507.3            0   -2240507.3   -284.78817 
      38            0   -2240507.4            0   -2240507.4   -284.24105 
      39            0   -2240507.4            0   -2240507.4   -283.61893 
      40            0   -2240507.4            0   -2240507.4   -283.01269 
      41            0   -2240507.4            0   -2240507.4   -282.42247 
      42            0   -2240507.4            0   -2240507.4   -281.84141 
      43            0   -2240507.4            0   -2240507.4   -281.28101 
      44            0   -2240507.4            0   -2240507.4   -280.66427 
      45            0   -2240507.4            0   -2240507.4   -279.95969 
      46            0   -2240507.4            0   -2240507.4   -279.27526 
      47            0   -2240507.4            0   -2240507.4   -278.64599 
      48            0   -2240507.4            0   -2240507.4   -278.03003 
      49            0   -2240507.4            0   -2240507.4   -277.44917 
      50            0   -2240507.4            0   -2240507.4   -276.90033 
      51            0   -2240507.4            0   -2240507.4   -276.31369 
      52            0   -2240507.4            0   -2240507.4   -275.70169 
      53            0   -2240507.4            0   -2240507.4    -275.1075 
      54            0   -2240507.4            0   -2240507.4   -274.52728 
      55            0   -2240507.4            0   -2240507.4   -273.98087 
      56            0   -2240507.4            0   -2240507.4   -273.46371 
      57            0   -2240507.4            0   -2240507.4   -272.93939 
      58            0   -2240507.4            0   -2240507.4   -272.38777 
      59            0   -2240507.5            0   -2240507.5   -271.77463 
      60            0   -2240507.5            0   -2240507.5   -271.13234 
      61            0   -2240507.5            0   -2240507.5   -270.51789 
      62            0   -2240507.5            0   -2240507.5   -269.90073 
      63            0   -2240507.5            0   -2240507.5   -269.27758 
      64            0   -2240507.5            0   -2240507.5   -268.68082 
      65            0   -2240507.5            0   -2240507.5   -268.07503 
      66            0   -2240507.5            0   -2240507.5   -267.45052 
      67            0   -2240507.5            0   -2240507.5   -266.86746 
      68            0   -2240507.5            0   -2240507.5   -266.31899 
      69            0   -2240507.5            0   -2240507.5   -265.78649 
      70            0   -2240507.5            0   -2240507.5   -265.27305 
      71            0   -2240507.5            0   -2240507.5   -264.77372 
      72            0   -2240507.5            0   -2240507.5   -264.28499 
      73            0   -2240507.5            0   -2240507.5   -263.79452 
      74            0   -2240507.5            0   -2240507.5   -263.29722 
      75            0   -2240507.5            0   -2240507.5   -262.79798 
      76            0   -2240507.5            0   -2240507.5   -262.30063 
      77            0   -2240507.5            0   -2240507.5   -261.81917 
      78            0   -2240507.5            0   -2240507.5   -261.35208 
      79            0   -2240507.6            0   -2240507.6   -260.87433 
      80            0   -2240507.6            0   -2240507.6   -260.37473 
      81            0   -2240507.6            0   -2240507.6   -259.87747 
      82            0   -2240507.6            0   -2240507.6   -259.41395 
      83            0   -2240507.6            0   -2240507.6   -258.99004 
      84            0   -2240507.6            0   -2240507.6   -258.58732 
      85            0   -2240507.6            0   -2240507.6   -258.18617 
      86            0   -2240507.6            0   -2240507.6   -257.76099 
      87            0   -2240507.6            0   -2240507.6   -257.29389 
      88            0   -2240507.6            0   -2240507.6   -256.81302 
      89            0   -2240507.6            0   -2240507.6   -256.34258 
      90            0   -2240507.6            0   -2240507.6   -255.85819 
      91            0   -2240507.6            0   -2240507.6    -255.3611 
      92            0   -2240507.6            0   -2240507.6   -254.86308 
      93            0   -2240507.6            0   -2240507.6   -254.33116 
      94            0   -2240507.6            0   -2240507.6   -253.75689 
      95            0   -2240507.6            0   -2240507.6   -253.18563 
      96            0   -2240507.6            0   -2240507.6   -252.64066 
      97            0   -2240507.6            0   -2240507.6    -252.1194 
      98            0   -2240507.6            0   -2240507.6   -251.61857 
      99            0   -2240507.6            0   -2240507.6   -251.12866 
     100            0   -2240507.6            0   -2240507.6   -250.62653 
     101            0   -2240507.7            0   -2240507.7   -250.08307 
     102            0   -2240507.7            0   -2240507.7   -249.49344 
     103            0   -2240507.7            0   -2240507.7   -248.88937 
     104            0   -2240507.7            0   -2240507.7   -248.28731 
     105            0   -2240507.7            0   -2240507.7   -247.67905 
     106            0   -2240507.7            0   -2240507.7   -247.07831 
     107            0   -2240507.7            0   -2240507.7   -246.47054 
     108            0   -2240507.7            0   -2240507.7   -245.81388 
     109            0   -2240507.7            0   -2240507.7   -245.11471 
     110            0   -2240507.7            0   -2240507.7   -244.39594 
     111            0   -2240507.7            0   -2240507.7   -243.66782 
     112            0   -2240507.7            0   -2240507.7   -242.95153 
     113            0   -2240507.7            0   -2240507.7   -242.27603 
     114            0   -2240507.7            0   -2240507.7   -241.64312 
     115            0   -2240507.7            0   -2240507.7   -241.03541 
     116            0   -2240507.7            0   -2240507.7    -240.4625 
     117            0   -2240507.7            0   -2240507.7   -239.93777 
     118            0   -2240507.7            0   -2240507.7   -239.44973 
     119            0   -2240507.7            0   -2240507.7   -238.98067 
     120            0   -2240507.7            0   -2240507.7   -238.52873 
     121            0   -2240507.8            0   -2240507.8    -238.0897 
     122            0   -2240507.8            0   -2240507.8   -237.64584 
     123            0   -2240507.8            0   -2240507.8   -237.19292 
     124            0   -2240507.8            0   -2240507.8   -236.74608 
     125            0   -2240507.8            0   -2240507.8   -236.31809 
     126            0   -2240507.8            0   -2240507.8   -235.90384 
     127            0   -2240507.8            0   -2240507.8   -235.49304 
     128            0   -2240507.8            0   -2240507.8   -235.06781 
     129            0   -2240507.8            0   -2240507.8   -234.59277 
     130            0   -2240507.8            0   -2240507.8   -234.06104 
     131            0   -2240507.8            0   -2240507.8   -233.50675 
     132            0   -2240507.8            0   -2240507.8   -232.95254 
     133            0   -2240507.8            0   -2240507.8   -232.39579 
     134            0   -2240507.8            0   -2240507.8   -231.83185 
     135            0   -2240507.8            0   -2240507.8   -231.24097 
     136            0   -2240507.8            0   -2240507.8   -230.59936 
     137            0   -2240507.8            0   -2240507.8   -229.90803 
     138            0   -2240507.8            0   -2240507.8   -229.19322 
     139            0   -2240507.8            0   -2240507.8   -228.47632 
     140            0   -2240507.8            0   -2240507.8   -227.77497 
     141            0   -2240507.9            0   -2240507.9   -227.09871 
     142            0   -2240507.9            0   -2240507.9   -226.44046 
     143            0   -2240507.9            0   -2240507.9   -225.78285 
     144            0   -2240507.9            0   -2240507.9   -225.10793 
     145            0   -2240507.9            0   -2240507.9   -224.43733 
     146            0   -2240507.9            0   -2240507.9    -223.7991 
     147            0   -2240507.9            0   -2240507.9   -223.19028 
     148            0   -2240507.9            0   -2240507.9   -222.60975 
     149            0   -2240507.9            0   -2240507.9   -222.05056 
     150            0   -2240507.9            0   -2240507.9   -221.48118 
     151            0   -2240507.9            0   -2240507.9   -220.89832 
     152            0   -2240507.9            0   -2240507.9   -220.33622 
     153            0   -2240507.9            0   -2240507.9   -219.80796 
     154            0   -2240507.9            0   -2240507.9   -219.30121 
     155            0   -2240507.9            0   -2240507.9   -218.80499 
     156            0   -2240507.9            0   -2240507.9   -218.30445 
     157            0   -2240507.9            0   -2240507.9   -217.77794 
     158            0   -2240507.9            0   -2240507.9    -217.2218 
     159            0   -2240507.9            0   -2240507.9    -216.6469 
     160            0   -2240507.9            0   -2240507.9   -216.08153 
     161            0   -2240507.9            0   -2240507.9   -215.53317 
     162            0     -2240508            0     -2240508   -214.99585 
     163            0     -2240508            0     -2240508   -214.47936 
     164            0     -2240508            0     -2240508   -213.98346 
     165            0     -2240508            0     -2240508   -213.50694 
     166            0     -2240508            0     -2240508   -213.06062 
     167            0     -2240508            0     -2240508    -212.6537 
     168            0     -2240508            0     -2240508   -212.29056 
     169            0     -2240508            0     -2240508   -211.97218 
     170            0     -2240508            0     -2240508   -211.69133 
     171            0     -2240508            0     -2240508   -211.43364 
     172            0     -2240508            0     -2240508   -211.18617 
     173            0     -2240508            0     -2240508   -210.95145 
     174            0     -2240508            0     -2240508   -210.73417 
     175            0     -2240508            0     -2240508   -210.53155 
     176            0     -2240508            0     -2240508   -210.34346 
     177            0     -2240508            0     -2240508   -210.16822 
     178            0     -2240508            0     -2240508   -210.00173 
     179            0     -2240508            0     -2240508   -209.84278 
     180            0     -2240508            0     -2240508    -209.6951 
     181            0     -2240508            0     -2240508   -209.56084 
     182            0     -2240508            0     -2240508   -209.44249 
     183            0     -2240508            0     -2240508   -209.33852 
     184            0     -2240508            0     -2240508   -209.24574 
     185            0     -2240508            0     -2240508   -209.15867 
     186            0     -2240508            0     -2240508   -209.07044 
     187            0     -2240508            0     -2240508   -208.98209 
     188            0     -2240508            0     -2240508   -208.89944 
     189            0     -2240508            0     -2240508   -208.82298 
     190            0     -2240508            0     -2240508   -208.75176 
     191            0     -2240508            0     -2240508   -208.68543 
     192            0     -2240508            0     -2240508   -208.62002 
     193            0     -2240508            0     -2240508   -208.55378 
     194            0     -2240508            0     -2240508   -208.48676 
     195            0     -2240508            0     -2240508   -208.41874 
     196            0     -2240508            0     -2240508   -208.34968 
     197            0     -2240508            0     -2240508   -208.27852 
     198            0     -2240508            0     -2240508   -208.20251 
     199            0     -2240508            0     -2240508   -208.11622 
     200            0     -2240508            0     -2240508   -208.01622 
     201            0     -2240508            0     -2240508   -207.90363 
     202            0     -2240508            0     -2240508   -207.78274 
     203            0     -2240508            0     -2240508   -207.65888 
     204            0     -2240508            0     -2240508   -207.53191 
     205            0     -2240508            0     -2240508   -207.39947 
     206            0     -2240508            0     -2240508   -207.26237 
     207            0     -2240508            0     -2240508   -207.12106 
     208            0     -2240508            0     -2240508   -206.97897 
     209            0     -2240508            0     -2240508   -206.84245 
     210            0     -2240508            0     -2240508   -206.71417 
     211            0     -2240508            0     -2240508   -206.59418 
     212            0     -2240508            0     -2240508   -206.48098 
     213            0     -2240508            0     -2240508   -206.37056 
     214            0     -2240508            0     -2240508   -206.25852 
     215            0     -2240508            0     -2240508   -206.14429 
     216            0     -2240508            0     -2240508   -206.03065 
     217            0     -2240508            0     -2240508   -205.92117 
     218            0     -2240508            0     -2240508   -205.81777 
     219            0     -2240508            0     -2240508   -205.71752 
     220            0     -2240508            0     -2240508   -205.61535 
     221            0     -2240508            0     -2240508   -205.50665 
     222            0     -2240508            0     -2240508   -205.38961 
     223            0     -2240508            0     -2240508   -205.26749 
     224            0     -2240508            0     -2240508   -205.14429 
     225            0     -2240508            0     -2240508   -205.02078 
     226            0     -2240508            0     -2240508   -204.89739 
     227            0     -2240508            0     -2240508   -204.77436 
     228            0     -2240508            0     -2240508   -204.65016 
     229            0     -2240508            0     -2240508   -204.52497 
     230            0     -2240508            0     -2240508   -204.40263 
     231            0     -2240508            0     -2240508   -204.28534 
     232            0     -2240508            0     -2240508   -204.17149 
     233            0     -2240508            0     -2240508   -204.06062 
     234            0     -2240508            0     -2240508    -203.9522 
     235            0     -2240508            0     -2240508    -203.8424 
     236            0     -2240508            0     -2240508   -203.72899 
     237            0     -2240508            0     -2240508    -203.6133 
     238            0     -2240508            0     -2240508    -203.4965 
     239            0     -2240508            0     -2240508      -203.38 
     240            0   -2240508.1            0   -2240508.1   -203.26545 
     241            0   -2240508.1            0   -2240508.1   -203.15211 
     242            0   -2240508.1            0   -2240508.1   -203.03795 
     243            0   -2240508.1            0   -2240508.1   -202.92158 
     244            0   -2240508.1            0   -2240508.1   -202.80562 
     245            0   -2240508.1            0   -2240508.1   -202.69201 
     246            0   -2240508.1            0   -2240508.1   -202.57806 
     247            0   -2240508.1            0   -2240508.1   -202.46183 
     248            0   -2240508.1            0   -2240508.1   -202.34208 
     249            0   -2240508.1            0   -2240508.1   -202.21551 
     250            0   -2240508.1            0   -2240508.1   -202.08141 
     251            0   -2240508.1            0   -2240508.1   -201.94376 
     252            0   -2240508.1            0   -2240508.1   -201.80786 
     253            0   -2240508.1            0   -2240508.1   -201.67595 
     254            0   -2240508.1            0   -2240508.1    -201.5484 
     255            0   -2240508.1            0   -2240508.1   -201.42304 
     256            0   -2240508.1            0   -2240508.1    -201.2978 
     257            0   -2240508.1            0   -2240508.1   -201.17117 
     258            0   -2240508.1            0   -2240508.1   -201.04483 
     259            0   -2240508.1            0   -2240508.1   -200.92149 
     260            0   -2240508.1            0   -2240508.1   -200.80288 
     261            0   -2240508.1            0   -2240508.1   -200.68843 
     262            0   -2240508.1            0   -2240508.1   -200.57686 
     263            0   -2240508.1            0   -2240508.1   -200.46642 
     264            0   -2240508.1            0   -2240508.1   -200.35441 
     265            0   -2240508.1            0   -2240508.1   -200.24081 
     266            0   -2240508.1            0   -2240508.1   -200.12813 
     267            0   -2240508.1            0   -2240508.1   -200.01725 
     268            0   -2240508.1            0   -2240508.1   -199.90663 
     269            0   -2240508.1            0   -2240508.1   -199.79396 
     270            0   -2240508.1            0   -2240508.1   -199.67596 
     271            0   -2240508.1            0   -2240508.1   -199.55041 
     272            0   -2240508.1            0   -2240508.1   -199.42069 
     273            0   -2240508.1            0   -2240508.1   -199.29157 
     274            0   -2240508.1            0   -2240508.1   -199.16547 
     275            0   -2240508.1            0   -2240508.1   -199.04445 
     276            0   -2240508.1            0   -2240508.1   -198.92879 
     277            0   -2240508.1            0   -2240508.1   -198.81401 
     278            0   -2240508.1            0   -2240508.1   -198.69813 
     279            0   -2240508.1            0   -2240508.1   -198.58156 
     280            0   -2240508.1            0   -2240508.1   -198.46468 
     281            0   -2240508.1            0   -2240508.1    -198.3503 
     282            0   -2240508.1            0   -2240508.1   -198.24053 
     283            0   -2240508.1            0   -2240508.1   -198.13531 
     284            0   -2240508.1            0   -2240508.1   -198.03364 
     285            0   -2240508.1            0   -2240508.1   -197.93144 
     286            0   -2240508.1            0   -2240508.1   -197.82576 
     287            0   -2240508.1            0   -2240508.1   -197.71849 
     288            0   -2240508.1            0   -2240508.1    -197.6096 
     289            0   -2240508.1            0   -2240508.1   -197.49733 
     290            0   -2240508.1            0   -2240508.1   -197.38222 
     291            0   -2240508.1            0   -2240508.1   -197.26317 
     292            0   -2240508.1            0   -2240508.1   -197.13711 
     293            0   -2240508.1            0   -2240508.1   -197.00485 
     294            0   -2240508.1            0   -2240508.1   -196.86967 
     295            0   -2240508.1            0   -2240508.1    -196.7335 
     296            0   -2240508.1            0   -2240508.1   -196.59553 
     297            0   -2240508.1            0   -2240508.1   -196.45551 
     298            0   -2240508.1            0   -2240508.1   -196.31482 
     299            0   -2240508.1            0   -2240508.1   -196.17315 
     300            0   -2240508.1            0   -2240508.1   -196.03198 
     301            0   -2240508.1            0   -2240508.1   -195.89586 
     302            0   -2240508.1            0   -2240508.1   -195.76851 
     303            0   -2240508.1            0   -2240508.1   -195.65149 
     304            0   -2240508.1            0   -2240508.1   -195.54191 
     305            0   -2240508.1            0   -2240508.1   -195.43532 
     306            0   -2240508.1            0   -2240508.1   -195.32823 
     307            0   -2240508.1            0   -2240508.1   -195.21942 
     308            0   -2240508.1            0   -2240508.1   -195.11017 
     309            0   -2240508.1            0   -2240508.1   -195.00213 
     310            0   -2240508.1            0   -2240508.1   -194.89258 
     311            0   -2240508.1            0   -2240508.1   -194.77796 
     312            0   -2240508.1            0   -2240508.1   -194.65818 
     313            0   -2240508.1            0   -2240508.1   -194.53041 
     314            0   -2240508.1            0   -2240508.1   -194.39327 
     315            0   -2240508.1            0   -2240508.1   -194.24819 
     316            0   -2240508.1            0   -2240508.1   -194.09592 
     317            0   -2240508.1            0   -2240508.1   -193.93942 
     318            0   -2240508.1            0   -2240508.1   -193.78056 
     319            0   -2240508.1            0   -2240508.1   -193.62128 
     320            0   -2240508.1            0   -2240508.1   -193.46325 
     321            0   -2240508.1            0   -2240508.1    -193.3098 
     322            0   -2240508.1            0   -2240508.1   -193.16338 
     323            0   -2240508.1            0   -2240508.1    -193.0258 
     324            0   -2240508.1            0   -2240508.1   -192.89811 
     325            0   -2240508.1            0   -2240508.1   -192.78027 
     326            0   -2240508.1            0   -2240508.1   -192.67002 
     327            0   -2240508.1            0   -2240508.1   -192.56497 
     328            0   -2240508.1            0   -2240508.1   -192.46408 
     329            0   -2240508.1            0   -2240508.1   -192.36881 
     330            0   -2240508.1            0   -2240508.1   -192.27945 
     331            0   -2240508.1            0   -2240508.1    -192.1947 
     332            0   -2240508.1            0   -2240508.1   -192.11286 
     333            0   -2240508.1            0   -2240508.1   -192.03202 
     334            0   -2240508.1            0   -2240508.1   -191.94996 
     335            0   -2240508.1            0   -2240508.1   -191.86569 
     336            0   -2240508.1            0   -2240508.1   -191.78014 
     337            0   -2240508.1            0   -2240508.1   -191.69519 
     338            0   -2240508.1            0   -2240508.1   -191.61102 
     339            0   -2240508.1            0   -2240508.1   -191.52729 
     340            0   -2240508.1            0   -2240508.1   -191.44306 
     341            0   -2240508.1            0   -2240508.1   -191.35739 
     342            0   -2240508.1            0   -2240508.1   -191.27087 
     343            0   -2240508.1            0   -2240508.1   -191.18479 
     344            0   -2240508.1            0   -2240508.1   -191.09853 
     345            0   -2240508.1            0   -2240508.1   -191.01262 
     346            0   -2240508.1            0   -2240508.1   -190.92768 
     347            0   -2240508.1            0   -2240508.1    -190.8427 
     348            0   -2240508.1            0   -2240508.1   -190.75658 
     349            0   -2240508.1            0   -2240508.1   -190.66825 
     350            0   -2240508.1            0   -2240508.1   -190.57831 
     351            0   -2240508.1            0   -2240508.1   -190.48808 
     352            0   -2240508.1            0   -2240508.1   -190.39876 
     353            0   -2240508.1            0   -2240508.1   -190.31058 
     354            0   -2240508.1            0   -2240508.1   -190.22235 
     355            0   -2240508.1            0   -2240508.1   -190.13301 
     356            0   -2240508.1            0   -2240508.1   -190.03974 
     357            0   -2240508.1            0   -2240508.1   -189.94125 
     358            0   -2240508.1            0   -2240508.1   -189.83735 
     359            0   -2240508.1            0   -2240508.1   -189.72866 
     360            0   -2240508.1            0   -2240508.1   -189.61689 
     361            0   -2240508.1            0   -2240508.1   -189.50344 
     362            0   -2240508.1            0   -2240508.1   -189.38867 
     363            0   -2240508.1            0   -2240508.1   -189.27146 
     364            0   -2240508.1            0   -2240508.1   -189.15081 
     365            0   -2240508.1            0   -2240508.1   -189.02737 
     366            0   -2240508.1            0   -2240508.1   -188.90242 
     367            0   -2240508.1            0   -2240508.1   -188.77739 
     368            0   -2240508.1            0   -2240508.1   -188.65237 
     369            0   -2240508.1            0   -2240508.1   -188.52839 
     370            0   -2240508.1            0   -2240508.1   -188.40581 
     371            0   -2240508.1            0   -2240508.1   -188.28534 
     372            0   -2240508.2            0   -2240508.2   -188.16874 
     373            0   -2240508.2            0   -2240508.2    -188.0554 
     374            0   -2240508.2            0   -2240508.2   -187.94456 
     375            0   -2240508.2            0   -2240508.2   -187.83566 
     376            0   -2240508.2            0   -2240508.2   -187.72757 
     377            0   -2240508.2            0   -2240508.2   -187.61969 
     378            0   -2240508.2            0   -2240508.2   -187.51011 
     379            0   -2240508.2            0   -2240508.2   -187.39926 
     380            0   -2240508.2            0   -2240508.2   -187.28727 
     381            0   -2240508.2            0   -2240508.2   -187.17376 
     382            0   -2240508.2            0   -2240508.2   -187.05814 
     383            0   -2240508.2            0   -2240508.2    -186.9405 
     384            0   -2240508.2            0   -2240508.2   -186.82031 
     385            0   -2240508.2            0   -2240508.2   -186.69784 
     386            0   -2240508.2            0   -2240508.2   -186.57447 
     387            0   -2240508.2            0   -2240508.2   -186.45253 
     388            0   -2240508.2            0   -2240508.2   -186.33331 
     389            0   -2240508.2            0   -2240508.2   -186.21896 
     390            0   -2240508.2            0   -2240508.2   -186.10965 
     391            0   -2240508.2            0   -2240508.2   -186.00421 
     392            0   -2240508.2            0   -2240508.2    -185.9017 
     393            0   -2240508.2            0   -2240508.2    -185.8024 
     394            0   -2240508.2            0   -2240508.2   -185.70778 
     395            0   -2240508.2            0   -2240508.2   -185.61754 
     396            0   -2240508.2            0   -2240508.2   -185.53051 
     397            0   -2240508.2            0   -2240508.2   -185.44539 
     398            0   -2240508.2            0   -2240508.2   -185.36017 
     399            0   -2240508.2            0   -2240508.2   -185.27333 
     400            0   -2240508.2            0   -2240508.2   -185.18587 
     401            0   -2240508.2            0   -2240508.2   -185.09851 
     402            0   -2240508.2            0   -2240508.2   -185.01186 
     403            0   -2240508.2            0   -2240508.2   -184.92698 
     404            0   -2240508.2            0   -2240508.2   -184.84274 
     405            0   -2240508.2            0   -2240508.2   -184.75705 
     406            0   -2240508.2            0   -2240508.2   -184.66982 
     407            0   -2240508.2            0   -2240508.2   -184.58091 
     408            0   -2240508.2            0   -2240508.2   -184.49031 
     409            0   -2240508.2            0   -2240508.2    -184.3987 
     410            0   -2240508.2            0   -2240508.2   -184.30498 
     411            0   -2240508.2            0   -2240508.2   -184.20985 
     412            0   -2240508.2            0   -2240508.2   -184.11248 
     413            0   -2240508.2            0   -2240508.2   -184.01273 
     414            0   -2240508.2            0   -2240508.2   -183.91172 
     415            0   -2240508.2            0   -2240508.2   -183.80902 
     416            0   -2240508.2            0   -2240508.2   -183.70438 
     417            0   -2240508.2            0   -2240508.2   -183.59759 
     418            0   -2240508.2            0   -2240508.2   -183.48878 
     419            0   -2240508.2            0   -2240508.2    -183.3786 
     420            0   -2240508.2            0   -2240508.2   -183.26667 
     421            0   -2240508.2            0   -2240508.2   -183.15263 
     422            0   -2240508.2            0   -2240508.2   -183.03699 
     423            0   -2240508.2            0   -2240508.2   -182.92106 
     424            0   -2240508.2            0   -2240508.2   -182.80544 
     425            0   -2240508.2            0   -2240508.2   -182.69133 
     426            0   -2240508.2            0   -2240508.2   -182.57759 
     427            0   -2240508.2            0   -2240508.2   -182.46229 
     428            0   -2240508.2            0   -2240508.2   -182.34516 
     429            0   -2240508.2            0   -2240508.2   -182.22659 
     430            0   -2240508.2            0   -2240508.2   -182.10789 
     431            0   -2240508.2            0   -2240508.2    -181.9902 
     432            0   -2240508.2            0   -2240508.2   -181.87403 
     433            0   -2240508.2            0   -2240508.2   -181.75894 
     434            0   -2240508.2            0   -2240508.2   -181.64412 
     435            0   -2240508.2            0   -2240508.2   -181.53039 
     436            0   -2240508.2            0   -2240508.2   -181.41871 
     437            0   -2240508.2            0   -2240508.2   -181.30961 
     438            0   -2240508.2            0   -2240508.2   -181.20315 
     439            0   -2240508.2            0   -2240508.2   -181.09887 
     440            0   -2240508.2            0   -2240508.2   -180.99636 
     441            0   -2240508.2            0   -2240508.2   -180.89408 
     442            0   -2240508.2            0   -2240508.2   -180.79211 
     443            0   -2240508.2            0   -2240508.2   -180.69114 
     444            0   -2240508.2            0   -2240508.2   -180.59081 
     445            0   -2240508.2            0   -2240508.2   -180.49129 
     446            0   -2240508.2            0   -2240508.2   -180.39228 
     447            0   -2240508.2            0   -2240508.2   -180.29286 
     448            0   -2240508.2            0   -2240508.2   -180.19155 
     449            0   -2240508.2            0   -2240508.2   -180.08717 
     450            0   -2240508.2            0   -2240508.2   -179.98081 
     451            0   -2240508.2            0   -2240508.2    -179.8734 
     452            0   -2240508.2            0   -2240508.2   -179.76519 
     453            0   -2240508.2            0   -2240508.2   -179.65623 
     454            0   -2240508.2            0   -2240508.2   -179.54494 
     455            0   -2240508.2            0   -2240508.2   -179.43004 
     456            0   -2240508.2            0   -2240508.2   -179.31158 
     457            0   -2240508.2            0   -2240508.2   -179.19066 
     458            0   -2240508.2            0   -2240508.2    -179.0679 
     459            0   -2240508.2            0   -2240508.2   -178.94339 
     460            0   -2240508.2            0   -2240508.2   -178.81782 
     461            0   -2240508.2            0   -2240508.2   -178.69203 
     462            0   -2240508.2            0   -2240508.2    -178.5659 
     463            0   -2240508.2            0   -2240508.2   -178.43983 
     464            0   -2240508.2            0   -2240508.2   -178.31365 
     465            0   -2240508.2            0   -2240508.2   -178.18781 
     466            0   -2240508.2            0   -2240508.2   -178.06268 
     467            0   -2240508.2            0   -2240508.2   -177.93692 
     468            0   -2240508.2            0   -2240508.2   -177.80956 
     469            0   -2240508.2            0   -2240508.2   -177.67999 
     470            0   -2240508.2            0   -2240508.2   -177.54915 
     471            0   -2240508.2            0   -2240508.2   -177.41816 
     472            0   -2240508.2            0   -2240508.2   -177.28739 
     473            0   -2240508.2            0   -2240508.2   -177.15849 
     474            0   -2240508.2            0   -2240508.2   -177.03271 
     475            0   -2240508.2            0   -2240508.2   -176.91016 
     476            0   -2240508.2            0   -2240508.2   -176.79016 
     477            0   -2240508.2            0   -2240508.2   -176.67198 
     478            0   -2240508.2            0   -2240508.2   -176.55677 
     479            0   -2240508.2            0   -2240508.2   -176.44547 
     480            0   -2240508.2            0   -2240508.2    -176.3388 
     481            0   -2240508.2            0   -2240508.2   -176.23647 
     482            0   -2240508.2            0   -2240508.2   -176.13887 
     483            0   -2240508.2            0   -2240508.2    -176.0454 
     484            0   -2240508.2            0   -2240508.2   -175.95581 
     485            0   -2240508.2            0   -2240508.2   -175.86973 
     486            0   -2240508.2            0   -2240508.2    -175.7872 
     487            0   -2240508.2            0   -2240508.2   -175.70818 
     488            0   -2240508.2            0   -2240508.2   -175.63162 
     489            0   -2240508.2            0   -2240508.2    -175.5566 
     490            0   -2240508.2            0   -2240508.2   -175.48331 
     491            0   -2240508.2            0   -2240508.2   -175.41148 
     492            0   -2240508.2            0   -2240508.2    -175.3412 
     493            0   -2240508.2            0   -2240508.2   -175.27278 
     494            0   -2240508.2            0   -2240508.2    -175.2064 
     495            0   -2240508.2            0   -2240508.2    -175.1415 
     496            0   -2240508.2            0   -2240508.2   -175.07835 
     497            0   -2240508.2            0   -2240508.2   -175.01735 
     498            0   -2240508.2            0   -2240508.2   -174.95863 
     499            0   -2240508.2            0   -2240508.2   -174.90226 
     500            0   -2240508.2            0   -2240508.2   -174.84874 
     501            0   -2240508.2            0   -2240508.2   -174.79848 
     502            0   -2240508.2            0   -2240508.2   -174.75143 
     503            0   -2240508.2            0   -2240508.2   -174.70692 
     504            0   -2240508.2            0   -2240508.2   -174.66407 
     505            0   -2240508.2            0   -2240508.2   -174.62251 
     506            0   -2240508.2            0   -2240508.2   -174.58223 
     507            0   -2240508.2            0   -2240508.2   -174.54296 
     508            0   -2240508.2            0   -2240508.2   -174.50448 
     509            0   -2240508.2            0   -2240508.2   -174.46616 
     510            0   -2240508.2            0   -2240508.2   -174.42757 
     511            0   -2240508.2            0   -2240508.2   -174.38882 
     512            0   -2240508.2            0   -2240508.2   -174.34963 
     513            0   -2240508.2            0   -2240508.2   -174.30962 
     514            0   -2240508.2            0   -2240508.2   -174.26915 
     515            0   -2240508.2            0   -2240508.2   -174.22821 
     516            0   -2240508.2            0   -2240508.2   -174.18655 
     517            0   -2240508.2            0   -2240508.2   -174.14392 
     518            0   -2240508.2            0   -2240508.2   -174.10005 
     519            0   -2240508.2            0   -2240508.2   -174.05453 
     520            0   -2240508.2            0   -2240508.2   -174.00765 
     521            0   -2240508.2            0   -2240508.2    -173.9598 
     522            0   -2240508.2            0   -2240508.2   -173.91124 
     523            0   -2240508.2            0   -2240508.2   -173.86215 
     524            0   -2240508.2            0   -2240508.2    -173.8127 
     525            0   -2240508.2            0   -2240508.2   -173.76217 
     526            0   -2240508.2            0   -2240508.2   -173.70985 
     527            0   -2240508.2            0   -2240508.2   -173.65581 
     528            0   -2240508.2            0   -2240508.2   -173.60066 
     529            0   -2240508.2            0   -2240508.2   -173.54563 
     530            0   -2240508.2            0   -2240508.2   -173.49108 
     531            0   -2240508.2            0   -2240508.2   -173.43684 
     532            0   -2240508.2            0   -2240508.2   -173.38265 
     533            0   -2240508.2            0   -2240508.2   -173.32833 
     534            0   -2240508.2            0   -2240508.2   -173.27378 
     535            0   -2240508.2            0   -2240508.2   -173.21929 
     536            0   -2240508.2            0   -2240508.2   -173.16501 
     537            0   -2240508.2            0   -2240508.2   -173.11143 
     538            0   -2240508.2            0   -2240508.2   -173.05883 
     539            0   -2240508.2            0   -2240508.2   -173.00649 
     540            0   -2240508.2            0   -2240508.2   -172.95417 
     541            0   -2240508.2            0   -2240508.2   -172.90179 
     542            0   -2240508.2            0   -2240508.2   -172.84937 
     543            0   -2240508.2            0   -2240508.2   -172.79739 
     544            0   -2240508.2            0   -2240508.2   -172.74561 
     545            0   -2240508.2            0   -2240508.2    -172.6933 
     546            0   -2240508.2            0   -2240508.2   -172.64053 
     547            0   -2240508.2            0   -2240508.2   -172.58762 
     548            0   -2240508.2            0   -2240508.2   -172.53481 
     549            0   -2240508.2            0   -2240508.2   -172.48186 
     550            0   -2240508.2            0   -2240508.2   -172.42955 
     551            0   -2240508.2            0   -2240508.2   -172.37793 
     552            0   -2240508.2            0   -2240508.2   -172.32668 
     553            0   -2240508.2            0   -2240508.2   -172.27554 
     554            0   -2240508.2            0   -2240508.2   -172.22394 
     555            0   -2240508.2            0   -2240508.2     -172.172 
     556            0   -2240508.2            0   -2240508.2   -172.12018 
     557            0   -2240508.2            0   -2240508.2    -172.0685 
     558            0   -2240508.2            0   -2240508.2   -172.01658 
     559            0   -2240508.2            0   -2240508.2    -171.9637 
     560            0   -2240508.2            0   -2240508.2   -171.90967 
     561            0   -2240508.2            0   -2240508.2    -171.8549 
     562            0   -2240508.2            0   -2240508.2   -171.79994 
     563            0   -2240508.2            0   -2240508.2   -171.74484 
     564            0   -2240508.2            0   -2240508.2   -171.68993 
     565            0   -2240508.2            0   -2240508.2   -171.63497 
     566            0   -2240508.2            0   -2240508.2   -171.57968 
     567            0   -2240508.2            0   -2240508.2   -171.52413 
     568            0   -2240508.2            0   -2240508.2   -171.46806 
     569            0   -2240508.2            0   -2240508.2    -171.4114 
     570            0   -2240508.2            0   -2240508.2   -171.35423 
     571            0   -2240508.2            0   -2240508.2   -171.29731 
     572            0   -2240508.2            0   -2240508.2   -171.24111 
     573            0   -2240508.2            0   -2240508.2   -171.18596 
     574            0   -2240508.2            0   -2240508.2   -171.13177 
     575            0   -2240508.2            0   -2240508.2   -171.07828 
     576            0   -2240508.2            0   -2240508.2   -171.02485 
     577            0   -2240508.2            0   -2240508.2   -170.97182 
     578            0   -2240508.2            0   -2240508.2   -170.91883 
     579            0   -2240508.2            0   -2240508.2   -170.86547 
     580            0   -2240508.2            0   -2240508.2    -170.8117 
     581            0   -2240508.2            0   -2240508.2   -170.75786 
     582            0   -2240508.2            0   -2240508.2   -170.70397 
     583            0   -2240508.2            0   -2240508.2   -170.64971 
     584            0   -2240508.2            0   -2240508.2   -170.59569 
     585            0   -2240508.2            0   -2240508.2   -170.54212 
     586            0   -2240508.2            0   -2240508.2   -170.48872 
     587            0   -2240508.2            0   -2240508.2   -170.43544 
     588            0   -2240508.2            0   -2240508.2   -170.38194 
     589            0   -2240508.2            0   -2240508.2   -170.32827 
     590            0   -2240508.2            0   -2240508.2   -170.27412 
     591            0   -2240508.2            0   -2240508.2    -170.2196 
     592            0   -2240508.2            0   -2240508.2   -170.16478 
     593            0   -2240508.2            0   -2240508.2   -170.10991 
     594            0   -2240508.2            0   -2240508.2   -170.05547 
     595            0   -2240508.2            0   -2240508.2   -170.00154 
     596            0   -2240508.2            0   -2240508.2   -169.94737 
     597            0   -2240508.2            0   -2240508.2   -169.89277 
     598            0   -2240508.2            0   -2240508.2   -169.83821 
     599            0   -2240508.2            0   -2240508.2   -169.78361 
     600            0   -2240508.2            0   -2240508.2   -169.72917 
     601            0   -2240508.2            0   -2240508.2   -169.67529 
     602            0   -2240508.2            0   -2240508.2   -169.62238 
     603            0   -2240508.2            0   -2240508.2   -169.56994 
     604            0   -2240508.2            0   -2240508.2    -169.5173 
     605            0   -2240508.2            0   -2240508.2   -169.46438 
     606            0   -2240508.2            0   -2240508.2   -169.41157 
     607            0   -2240508.2            0   -2240508.2   -169.35867 
     608            0   -2240508.2            0   -2240508.2   -169.30574 
     609            0   -2240508.2            0   -2240508.2   -169.25248 
     610            0   -2240508.2            0   -2240508.2    -169.1991 
     611            0   -2240508.2            0   -2240508.2   -169.14534 
     612            0   -2240508.2            0   -2240508.2   -169.09118 
     613            0   -2240508.2            0   -2240508.2   -169.03675 
     614            0   -2240508.2            0   -2240508.2   -168.98203 
     615            0   -2240508.2            0   -2240508.2   -168.92687 
     616            0   -2240508.2            0   -2240508.2   -168.87119 
     617            0   -2240508.2            0   -2240508.2   -168.81496 
     618            0   -2240508.2            0   -2240508.2   -168.75844 
     619            0   -2240508.2            0   -2240508.2   -168.70182 
     620            0   -2240508.2            0   -2240508.2   -168.64499 
     621            0   -2240508.2            0   -2240508.2   -168.58762 
     622            0   -2240508.2            0   -2240508.2    -168.5296 
     623            0   -2240508.2            0   -2240508.2   -168.47103 
     624            0   -2240508.2            0   -2240508.2   -168.41214 
     625            0   -2240508.2            0   -2240508.2   -168.35298 
     626            0   -2240508.2            0   -2240508.2   -168.29365 
     627            0   -2240508.2            0   -2240508.2    -168.2341 
     628            0   -2240508.2            0   -2240508.2   -168.17445 
     629            0   -2240508.2            0   -2240508.2   -168.11446 
     630            0   -2240508.2            0   -2240508.2   -168.05347 
     631            0   -2240508.2            0   -2240508.2   -167.99151 
     632            0   -2240508.2            0   -2240508.2   -167.92886 
     633            0   -2240508.2            0   -2240508.2   -167.86603 
     634            0   -2240508.2            0   -2240508.2     -167.804 
     635            0   -2240508.2            0   -2240508.2   -167.74227 
     636            0   -2240508.2            0   -2240508.2   -167.68106 
     637            0   -2240508.2            0   -2240508.2   -167.62051 
     638            0   -2240508.2            0   -2240508.2    -167.5612 
     639            0   -2240508.2            0   -2240508.2   -167.50325 
     640            0   -2240508.2            0   -2240508.2   -167.44674 
     641            0   -2240508.2            0   -2240508.2   -167.39188 
     642            0   -2240508.2            0   -2240508.2   -167.33916 
     643            0   -2240508.2            0   -2240508.2   -167.28869 
     644            0   -2240508.2            0   -2240508.2   -167.23997 
     645            0   -2240508.2            0   -2240508.2   -167.19261 
     646            0   -2240508.2            0   -2240508.2   -167.14621 
     647            0   -2240508.2            0   -2240508.2   -167.10016 
     648            0   -2240508.2            0   -2240508.2   -167.05497 
     649            0   -2240508.2            0   -2240508.2   -167.01071 
     650            0   -2240508.2            0   -2240508.2   -166.96754 
     651            0   -2240508.2            0   -2240508.2   -166.92546 
     652            0   -2240508.2            0   -2240508.2   -166.88399 
     653            0   -2240508.2            0   -2240508.2   -166.84285 
     654            0   -2240508.2            0   -2240508.2   -166.80192 
     655            0   -2240508.2            0   -2240508.2   -166.76095 
     656            0   -2240508.2            0   -2240508.2   -166.72004 
     657            0   -2240508.2            0   -2240508.2   -166.67943 
     658            0   -2240508.2            0   -2240508.2   -166.63942 
     659            0   -2240508.2            0   -2240508.2   -166.60026 
     660            0   -2240508.2            0   -2240508.2   -166.56166 
     661            0   -2240508.2            0   -2240508.2   -166.52365 
     662            0   -2240508.2            0   -2240508.2   -166.48633 
     663            0   -2240508.2            0   -2240508.2   -166.44976 
     664            0   -2240508.2            0   -2240508.2   -166.41373 
     665            0   -2240508.2            0   -2240508.2   -166.37806 
     666            0   -2240508.2            0   -2240508.2   -166.34235 
     667            0   -2240508.2            0   -2240508.2   -166.30627 
     668            0   -2240508.2            0   -2240508.2   -166.26998 
     669            0   -2240508.2            0   -2240508.2   -166.23361 
     670            0   -2240508.2            0   -2240508.2   -166.19701 
     671            0   -2240508.2            0   -2240508.2   -166.16011 
     672            0   -2240508.2            0   -2240508.2    -166.1227 
     673            0   -2240508.2            0   -2240508.2   -166.08433 
     674            0   -2240508.2            0   -2240508.2   -166.04516 
     675            0   -2240508.2            0   -2240508.2   -166.00521 
     676            0   -2240508.2            0   -2240508.2   -165.96471 
     677            0   -2240508.2            0   -2240508.2    -165.9236 
     678            0   -2240508.2            0   -2240508.2   -165.88201 
     679            0   -2240508.2            0   -2240508.2    -165.8399 
     680            0   -2240508.2            0   -2240508.2   -165.79738 
     681            0   -2240508.2            0   -2240508.2   -165.75481 
     682            0   -2240508.2            0   -2240508.2   -165.71214 
     683            0   -2240508.2            0   -2240508.2   -165.66904 
     684            0   -2240508.2            0   -2240508.2   -165.62541 
     685            0   -2240508.2            0   -2240508.2   -165.58107 
     686            0   -2240508.2            0   -2240508.2   -165.53622 
     687            0   -2240508.2            0   -2240508.2   -165.49099 
     688            0   -2240508.2            0   -2240508.2    -165.4454 
     689            0   -2240508.2            0   -2240508.2   -165.39962 
     690            0   -2240508.2            0   -2240508.2   -165.35396 
     691            0   -2240508.2            0   -2240508.2   -165.30828 
     692            0   -2240508.2            0   -2240508.2   -165.26284 
     693            0   -2240508.2            0   -2240508.2   -165.21762 
     694            0   -2240508.2            0   -2240508.2   -165.17239 
     695            0   -2240508.2            0   -2240508.2   -165.12727 
     696            0   -2240508.2            0   -2240508.2   -165.08247 
     697            0   -2240508.2            0   -2240508.2   -165.03794 
     698            0   -2240508.2            0   -2240508.2   -164.99373 
     699            0   -2240508.2            0   -2240508.2   -164.95019 
     700            0   -2240508.2            0   -2240508.2   -164.90715 
     701            0   -2240508.2            0   -2240508.2   -164.86467 
     702            0   -2240508.2            0   -2240508.2   -164.82233 
     703            0   -2240508.2            0   -2240508.2   -164.78003 
     704            0   -2240508.2            0   -2240508.2   -164.73791 
     705            0   -2240508.2            0   -2240508.2   -164.69618 
     706            0   -2240508.2            0   -2240508.2   -164.65438 
     707            0   -2240508.2            0   -2240508.2   -164.61274 
     708            0   -2240508.2            0   -2240508.2   -164.57141 
     709            0   -2240508.2            0   -2240508.2   -164.53015 
     710            0   -2240508.2            0   -2240508.2   -164.48911 
     711            0   -2240508.2            0   -2240508.2   -164.44838 
     712            0   -2240508.2            0   -2240508.2   -164.40807 
     713            0   -2240508.2            0   -2240508.2   -164.36831 
     714            0   -2240508.2            0   -2240508.2   -164.32908 
     715            0   -2240508.2            0   -2240508.2   -164.29005 
     716            0   -2240508.2            0   -2240508.2   -164.25128 
     717            0   -2240508.2            0   -2240508.2   -164.21257 
     718            0   -2240508.2            0   -2240508.2   -164.17364 
     719            0   -2240508.2            0   -2240508.2   -164.13453 
     720            0   -2240508.2            0   -2240508.2   -164.09545 
     721            0   -2240508.2            0   -2240508.2   -164.05629 
     722            0   -2240508.2            0   -2240508.2   -164.01734 
     723            0   -2240508.2            0   -2240508.2    -163.9788 
     724            0   -2240508.2            0   -2240508.2   -163.94061 
     725            0   -2240508.2            0   -2240508.2   -163.90245 
     726            0   -2240508.2            0   -2240508.2   -163.86439 
     727            0   -2240508.2            0   -2240508.2   -163.82662 
     728            0   -2240508.2            0   -2240508.2   -163.78905 
     729            0   -2240508.2            0   -2240508.2   -163.75185 
     730            0   -2240508.2            0   -2240508.2   -163.71464 
     731            0   -2240508.2            0   -2240508.2   -163.67719 
     732            0   -2240508.2            0   -2240508.2   -163.63974 
     733            0   -2240508.2            0   -2240508.2   -163.60217 
     734            0   -2240508.2            0   -2240508.2   -163.56434 
     735            0   -2240508.2            0   -2240508.2   -163.52632 
     736            0   -2240508.2            0   -2240508.2   -163.48803 
     737            0   -2240508.2            0   -2240508.2   -163.44909 
     738            0   -2240508.2            0   -2240508.2   -163.40956 
     739            0   -2240508.2            0   -2240508.2   -163.36966 
     740            0   -2240508.2            0   -2240508.2   -163.32956 
     741            0   -2240508.2            0   -2240508.2   -163.28897 
     742            0   -2240508.2            0   -2240508.2   -163.24816 
     743            0   -2240508.2            0   -2240508.2     -163.207 
     744            0   -2240508.2            0   -2240508.2   -163.16537 
     745            0   -2240508.2            0   -2240508.2   -163.12299 
     746            0   -2240508.2            0   -2240508.2   -163.08015 
     747            0   -2240508.2            0   -2240508.2   -163.03691 
     748            0   -2240508.2            0   -2240508.2   -162.99323 
     749            0   -2240508.2            0   -2240508.2   -162.94903 
     750            0   -2240508.2            0   -2240508.2   -162.90432 
     751            0   -2240508.2            0   -2240508.2   -162.85905 
     752            0   -2240508.2            0   -2240508.2   -162.81354 
     753            0   -2240508.2            0   -2240508.2   -162.76816 
     754            0   -2240508.2            0   -2240508.2   -162.72272 
     755            0   -2240508.2            0   -2240508.2   -162.67728 
     756            0   -2240508.2            0   -2240508.2   -162.63202 
     757            0   -2240508.2            0   -2240508.2   -162.58687 
     758            0   -2240508.2            0   -2240508.2   -162.54186 
     759            0   -2240508.2            0   -2240508.2   -162.49668 
     760            0   -2240508.2            0   -2240508.2   -162.45118 
     761            0   -2240508.2            0   -2240508.2   -162.40555 
     762            0   -2240508.2            0   -2240508.2   -162.35987 
     763            0   -2240508.2            0   -2240508.2   -162.31383 
     764            0   -2240508.2            0   -2240508.2   -162.26689 
     765            0   -2240508.2            0   -2240508.2   -162.21854 
     766            0   -2240508.2            0   -2240508.2   -162.16801 
     767            0   -2240508.2            0   -2240508.2   -162.11486 
     768            0   -2240508.2            0   -2240508.2   -162.05863 
     769            0   -2240508.2            0   -2240508.2   -161.99847 
     770            0   -2240508.2            0   -2240508.2   -161.93309 
     771            0   -2240508.2            0   -2240508.2   -161.86165 
     772            0   -2240508.2            0   -2240508.2   -161.78304 
     773            0   -2240508.2            0   -2240508.2   -161.69554 
     774            0   -2240508.2            0   -2240508.2   -161.59717 
     775            0   -2240508.2            0   -2240508.2   -161.48643 
     776            0   -2240508.2            0   -2240508.2   -161.36179 
     777            0   -2240508.2            0   -2240508.2    -161.2227 
     778            0   -2240508.2            0   -2240508.2   -161.06757 
     779            0   -2240508.2            0   -2240508.2    -160.8965 
     780            0   -2240508.2            0   -2240508.2   -160.70974 
     781            0   -2240508.2            0   -2240508.2   -160.50761 
     782            0   -2240508.2            0   -2240508.2   -160.29227 
     783            0   -2240508.2            0   -2240508.2   -160.06708 
     784            0   -2240508.2            0   -2240508.2   -159.83506 
     785            0   -2240508.2            0   -2240508.2    -159.5984 
     786            0   -2240508.2            0   -2240508.2   -159.35736 
     787            0   -2240508.2            0   -2240508.2   -159.11156 
     788            0   -2240508.2            0   -2240508.2   -158.86021 
     789            0   -2240508.2            0   -2240508.2   -158.60303 
     790            0   -2240508.2            0   -2240508.2   -158.33918 
     791            0   -2240508.2            0   -2240508.2   -158.06713 
     792            0   -2240508.2            0   -2240508.2   -157.78522 
     793            0   -2240508.2            0   -2240508.2   -157.49214 
     794            0   -2240508.2            0   -2240508.2   -157.18648 
     795            0   -2240508.2            0   -2240508.2   -156.86542 
     796            0   -2240508.2            0   -2240508.2   -156.52572 
     797            0   -2240508.2            0   -2240508.2   -156.16468 
     798            0   -2240508.2            0   -2240508.2   -155.78143 
     799            0   -2240508.2            0   -2240508.2   -155.37738 
     800            0   -2240508.2            0   -2240508.2   -154.95603 
     801            0   -2240508.2            0   -2240508.2   -154.52111 
     802            0   -2240508.2            0   -2240508.2   -154.07701 
     803            0   -2240508.2            0   -2240508.2   -153.63008 
     804            0   -2240508.2            0   -2240508.2   -153.18406 
     805            0   -2240508.2            0   -2240508.2   -152.74018 
     806            0   -2240508.2            0   -2240508.2   -152.29823 
     807            0   -2240508.2            0   -2240508.2   -151.85857 
     808            0   -2240508.2            0   -2240508.2   -151.42096 
     809            0   -2240508.2            0   -2240508.2   -150.98756 
     810            0   -2240508.2            0   -2240508.2   -150.56039 
     811            0   -2240508.2            0   -2240508.2   -150.14173 
     812            0   -2240508.2            0   -2240508.2   -149.73234 
     813            0   -2240508.2            0   -2240508.2   -149.33432 
     814            0   -2240508.2            0   -2240508.2   -148.94905 
     815            0   -2240508.2            0   -2240508.2   -148.57508 
     816            0   -2240508.2            0   -2240508.2   -148.20911 
     817            0   -2240508.2            0   -2240508.2   -147.85063 
     818            0   -2240508.2            0   -2240508.2   -147.49948 
     819            0   -2240508.2            0   -2240508.2   -147.15359 
     820            0   -2240508.2            0   -2240508.2   -146.81277 
     821            0   -2240508.2            0   -2240508.2   -146.47414 
     822            0   -2240508.2            0   -2240508.2   -146.13863 
     823            0   -2240508.2            0   -2240508.2   -145.80444 
     824            0   -2240508.2            0   -2240508.2   -145.47284 
     825            0   -2240508.2            0   -2240508.2   -145.14432 
     826            0   -2240508.2            0   -2240508.2   -144.82079 
     827            0   -2240508.2            0   -2240508.2   -144.50111 
     828            0   -2240508.2            0   -2240508.2   -144.18545 
     829            0   -2240508.2            0   -2240508.2   -143.87217 
     830            0   -2240508.2            0   -2240508.2   -143.56066 
     831            0   -2240508.2            0   -2240508.2   -143.25027 
     832            0   -2240508.2            0   -2240508.2   -142.94225 
     833            0   -2240508.2            0   -2240508.2   -142.63646 
     834            0   -2240508.2            0   -2240508.2   -142.33781 
     835            0   -2240508.2            0   -2240508.2   -142.04777 
     836            0   -2240508.2            0   -2240508.2   -141.76917 
     837            0   -2240508.2            0   -2240508.2   -141.50182 
     838            0   -2240508.2            0   -2240508.2   -141.24636 
     839            0   -2240508.2            0   -2240508.2   -141.00159 
     840            0   -2240508.2            0   -2240508.2   -140.76742 
     841            0   -2240508.2            0   -2240508.2   -140.54187 
     842            0   -2240508.2            0   -2240508.2   -140.32229 
     843            0   -2240508.2            0   -2240508.2   -140.10496 
     844            0   -2240508.2            0   -2240508.2   -139.88855 
     845            0   -2240508.2            0   -2240508.2   -139.67198 
     846            0   -2240508.2            0   -2240508.2   -139.45372 
     847            0   -2240508.2            0   -2240508.2   -139.23327 
     848            0   -2240508.2            0   -2240508.2    -139.0103 
     849            0   -2240508.2            0   -2240508.2   -138.78458 
     850            0   -2240508.2            0   -2240508.2   -138.55573 
     851            0   -2240508.2            0   -2240508.2   -138.32486 
     852            0   -2240508.2            0   -2240508.2   -138.09184 
     853            0   -2240508.2            0   -2240508.2   -137.85807 
     854            0   -2240508.2            0   -2240508.2   -137.62527 
     855            0   -2240508.2            0   -2240508.2   -137.39435 
     856            0   -2240508.2            0   -2240508.2   -137.16577 
     857            0   -2240508.2            0   -2240508.2   -136.93933 
     858            0   -2240508.2            0   -2240508.2   -136.71487 
     859            0   -2240508.2            0   -2240508.2   -136.49274 
     860            0   -2240508.2            0   -2240508.2   -136.27316 
     861            0   -2240508.2            0   -2240508.2   -136.05634 
     862            0   -2240508.2            0   -2240508.2   -135.84135 
     863            0   -2240508.2            0   -2240508.2   -135.62653 
     864            0   -2240508.2            0   -2240508.2   -135.41079 
     865            0   -2240508.2            0   -2240508.2   -135.19404 
     866            0   -2240508.2            0   -2240508.2   -134.97645 
     867            0   -2240508.2            0   -2240508.2   -134.75705 
     868            0   -2240508.2            0   -2240508.2     -134.535 
     869            0   -2240508.2            0   -2240508.2   -134.30992 
     870            0   -2240508.2            0   -2240508.2   -134.08228 
     871            0   -2240508.2            0   -2240508.2   -133.85304 
     872            0   -2240508.2            0   -2240508.2   -133.62349 
     873            0   -2240508.2            0   -2240508.2   -133.39642 
     874            0   -2240508.2            0   -2240508.2   -133.17232 
     875            0   -2240508.2            0   -2240508.2   -132.95163 
     876            0   -2240508.2            0   -2240508.2   -132.73355 
     877            0   -2240508.2            0   -2240508.2   -132.51606 
     878            0   -2240508.2            0   -2240508.2   -132.29911 
     879            0   -2240508.2            0   -2240508.2   -132.08079 
     880            0   -2240508.2            0   -2240508.2   -131.86051 
     881            0   -2240508.2            0   -2240508.2   -131.63803 
     882            0   -2240508.2            0   -2240508.2   -131.41266 
     883            0   -2240508.2            0   -2240508.2   -131.18273 
     884            0   -2240508.2            0   -2240508.2   -130.94802 
     885            0   -2240508.2            0   -2240508.2   -130.70764 
     886            0   -2240508.2            0   -2240508.2   -130.46234 
     887            0   -2240508.2            0   -2240508.2   -130.21201 
     888            0   -2240508.2            0   -2240508.2   -129.95794 
     889            0   -2240508.2            0   -2240508.2   -129.70145 
     890            0   -2240508.2            0   -2240508.2   -129.44521 
     891            0   -2240508.2            0   -2240508.2   -129.19231 
     892            0   -2240508.2            0   -2240508.2   -128.94485 
     893            0   -2240508.2            0   -2240508.2   -128.70462 
     894            0   -2240508.2            0   -2240508.2   -128.47309 
     895            0   -2240508.2            0   -2240508.2   -128.25251 
     896            0   -2240508.2            0   -2240508.2   -128.04413 
     897            0   -2240508.2            0   -2240508.2   -127.84732 
     898            0   -2240508.2            0   -2240508.2   -127.66148 
     899            0   -2240508.2            0   -2240508.2   -127.48511 
     900            0   -2240508.2            0   -2240508.2   -127.31723 
     901            0   -2240508.2            0   -2240508.2   -127.15568 
     902            0   -2240508.2            0   -2240508.2   -126.99866 
     903            0   -2240508.2            0   -2240508.2   -126.84623 
     904            0   -2240508.2            0   -2240508.2    -126.6985 
     905            0   -2240508.2            0   -2240508.2   -126.55491 
     906            0   -2240508.2            0   -2240508.2   -126.41521 
     907            0   -2240508.2            0   -2240508.2   -126.27872 
     908            0   -2240508.2            0   -2240508.2   -126.14529 
     909            0   -2240508.2            0   -2240508.2   -126.01534 
     910            0   -2240508.2            0   -2240508.2   -125.88916 
     911            0   -2240508.2            0   -2240508.2   -125.76615 
     912            0   -2240508.2            0   -2240508.2   -125.64588 
     913            0   -2240508.2            0   -2240508.2   -125.52827 
     914            0   -2240508.2            0   -2240508.2   -125.41283 
     915            0   -2240508.2            0   -2240508.2   -125.29869 
     916            0   -2240508.2            0   -2240508.2   -125.18508 
     917            0   -2240508.2            0   -2240508.2   -125.07045 
     918            0   -2240508.2            0   -2240508.2   -124.95286 
     919            0   -2240508.2            0   -2240508.2   -124.83088 
     920            0   -2240508.2            0   -2240508.2   -124.70387 
     921            0   -2240508.2            0   -2240508.2   -124.57161 
     922            0   -2240508.2            0   -2240508.2    -124.4341 
     923            0   -2240508.2            0   -2240508.2   -124.29076 
     924            0   -2240508.2            0   -2240508.2   -124.14153 
     925            0   -2240508.2            0   -2240508.2   -123.98653 
     926            0   -2240508.2            0   -2240508.2     -123.827 
     927            0   -2240508.2            0   -2240508.2   -123.66602 
     928            0   -2240508.2            0   -2240508.2   -123.50699 
     929            0   -2240508.2            0   -2240508.2   -123.35366 
     930            0   -2240508.2            0   -2240508.2   -123.20845 
     931            0   -2240508.2            0   -2240508.2   -123.07289 
     932            0   -2240508.2            0   -2240508.2   -122.94883 
     933            0   -2240508.2            0   -2240508.2   -122.83663 
     934            0   -2240508.2            0   -2240508.2   -122.73605 
     935            0   -2240508.2            0   -2240508.2   -122.64625 
     936            0   -2240508.2            0   -2240508.2   -122.56609 
     937            0   -2240508.2            0   -2240508.2   -122.49409 
     938            0   -2240508.2            0   -2240508.2   -122.42861 
     939            0   -2240508.2            0   -2240508.2   -122.36872 
     940            0   -2240508.2            0   -2240508.2   -122.31308 
     941            0   -2240508.2            0   -2240508.2   -122.26055 
     942            0   -2240508.2            0   -2240508.2   -122.21004 
     943            0   -2240508.2            0   -2240508.2   -122.16081 
     944            0   -2240508.2            0   -2240508.2   -122.11241 
     945            0   -2240508.2            0   -2240508.2   -122.06444 
     946            0   -2240508.2            0   -2240508.2   -122.01713 
     947            0   -2240508.2            0   -2240508.2   -121.97115 
     948            0   -2240508.2            0   -2240508.2   -121.92704 
     949            0   -2240508.2            0   -2240508.2   -121.88548 
     950            0   -2240508.2            0   -2240508.2   -121.84695 
     951            0   -2240508.2            0   -2240508.2   -121.81217 
     952            0   -2240508.2            0   -2240508.2   -121.78117 
     953            0   -2240508.2            0   -2240508.2   -121.75379 
     954            0   -2240508.2            0   -2240508.2   -121.72971 
     955            0   -2240508.2            0   -2240508.2   -121.70859 
     956            0   -2240508.2            0   -2240508.2      -121.69 
     957            0   -2240508.2            0   -2240508.2    -121.6737 
     958            0   -2240508.2            0   -2240508.2   -121.65935 
     959            0   -2240508.2            0   -2240508.2   -121.64662 
     960            0   -2240508.2            0   -2240508.2   -121.63534 
     961            0   -2240508.2            0   -2240508.2    -121.6253 
     962            0   -2240508.2            0   -2240508.2   -121.61638 
     963            0   -2240508.2            0   -2240508.2   -121.60847 
     964            0   -2240508.2            0   -2240508.2    -121.6015 
     965            0   -2240508.2            0   -2240508.2   -121.59534 
     966            0   -2240508.2            0   -2240508.2   -121.58994 
     967            0   -2240508.2            0   -2240508.2   -121.58524 
     968            0   -2240508.2            0   -2240508.2   -121.58116 
     969            0   -2240508.2            0   -2240508.2   -121.57761 
     970            0   -2240508.2            0   -2240508.2   -121.57456 
     971            0   -2240508.2            0   -2240508.2   -121.57199 
     972            0   -2240508.2            0   -2240508.2   -121.56981 
     973            0   -2240508.2            0   -2240508.2   -121.56793 
     974            0   -2240508.2            0   -2240508.2   -121.56634 
     975            0   -2240508.2            0   -2240508.2   -121.56503 
     976            0   -2240508.2            0   -2240508.2     -121.564 
     977            0   -2240508.2            0   -2240508.2   -121.56319 
     978            0   -2240508.2            0   -2240508.2   -121.56257 
     979            0   -2240508.2            0   -2240508.2    -121.5621 
     980            0   -2240508.2            0   -2240508.2   -121.56174 
     981            0   -2240508.2            0   -2240508.2   -121.56145 
     982            0   -2240508.2            0   -2240508.2   -121.56127 
     983            0   -2240508.2            0   -2240508.2    -121.5612 
     984            0   -2240508.2            0   -2240508.2   -121.56122 
     985            0   -2240508.2            0   -2240508.2   -121.56134 
     986            0   -2240508.2            0   -2240508.2    -121.5615 
     987            0   -2240508.2            0   -2240508.2   -121.56165 
     988            0   -2240508.2            0   -2240508.2   -121.56176 
     989            0   -2240508.2            0   -2240508.2   -121.56181 
     990            0   -2240508.2            0   -2240508.2   -121.56177 
     991            0   -2240508.2            0   -2240508.2   -121.56156 
     992            0   -2240508.2            0   -2240508.2   -121.56113 
     993            0   -2240508.2            0   -2240508.2   -121.56051 
     994            0   -2240508.2            0   -2240508.2   -121.55976 
     995            0   -2240508.2            0   -2240508.2   -121.55888 
     996            0   -2240508.2            0   -2240508.2   -121.55784 
     997            0   -2240508.2            0   -2240508.2   -121.55663 
     998            0   -2240508.2            0   -2240508.2   -121.55526 
     999            0   -2240508.2            0   -2240508.2   -121.55368 
    1000            0   -2240508.2            0   -2240508.2   -121.55187 
    1001            0   -2240508.2            0   -2240508.2   -121.54987 
    1002            0   -2240508.2            0   -2240508.2   -121.54773 
    1003            0   -2240508.2            0   -2240508.2   -121.54547 
    1004            0   -2240508.2            0   -2240508.2   -121.54313 
    1005            0   -2240508.2            0   -2240508.2    -121.5408 
    1006            0   -2240508.2            0   -2240508.2   -121.53859 
    1007            0   -2240508.2            0   -2240508.2   -121.53652 
    1008            0   -2240508.2            0   -2240508.2   -121.53457 
    1009            0   -2240508.2            0   -2240508.2   -121.53277 
    1010            0   -2240508.2            0   -2240508.2   -121.53115 
    1011            0   -2240508.2            0   -2240508.2   -121.52974 
    1012            0   -2240508.2            0   -2240508.2   -121.52857 
    1013            0   -2240508.2            0   -2240508.2   -121.52768 
    1014            0   -2240508.2            0   -2240508.2   -121.52705 
    1015            0   -2240508.2            0   -2240508.2   -121.52668 
    1016            0   -2240508.2            0   -2240508.2   -121.52659 
    1017            0   -2240508.2            0   -2240508.2    -121.5268 
    1018            0   -2240508.2            0   -2240508.2   -121.52727 
    1019            0   -2240508.2            0   -2240508.2   -121.52803 
    1020            0   -2240508.2            0   -2240508.2   -121.52908 
    1021            0   -2240508.2            0   -2240508.2   -121.53045 
    1022            0   -2240508.2            0   -2240508.2   -121.53216 
    1023            0   -2240508.2            0   -2240508.2   -121.53425 
    1024            0   -2240508.2            0   -2240508.2   -121.53668 
    1025            0   -2240508.2            0   -2240508.2   -121.53933 
    1026            0   -2240508.2            0   -2240508.2   -121.54213 
    1027            0   -2240508.2            0   -2240508.2   -121.54499 
    1028            0   -2240508.2            0   -2240508.2   -121.54785 
    1029            0   -2240508.2            0   -2240508.2   -121.55067 
    1030            0   -2240508.2            0   -2240508.2   -121.55346 
    1031            0   -2240508.2            0   -2240508.2   -121.55626 
    1032            0   -2240508.2            0   -2240508.2   -121.55917 
    1033            0   -2240508.2            0   -2240508.2   -121.56224 
    1034            0   -2240508.2            0   -2240508.2   -121.56553 
    1035            0   -2240508.2            0   -2240508.2   -121.56912 
    1036            0   -2240508.2            0   -2240508.2   -121.57303 
    1037            0   -2240508.2            0   -2240508.2    -121.5772 
    1038            0   -2240508.2            0   -2240508.2   -121.58162 
    1039            0   -2240508.2            0   -2240508.2   -121.58624 
    1040            0   -2240508.2            0   -2240508.2   -121.59094 
    1041            0   -2240508.2            0   -2240508.2   -121.59559 
    1042            0   -2240508.2            0   -2240508.2   -121.60006 
    1043            0   -2240508.2            0   -2240508.2   -121.60425 
    1044            0   -2240508.2            0   -2240508.2   -121.60813 
    1045            0   -2240508.2            0   -2240508.2   -121.61172 
    1046            0   -2240508.2            0   -2240508.2   -121.61498 
    1047            0   -2240508.2            0   -2240508.2   -121.61793 
    1048            0   -2240508.2            0   -2240508.2    -121.6206 
    1049            0   -2240508.2            0   -2240508.2     -121.623 
    1050            0   -2240508.2            0   -2240508.2   -121.62517 
    1051            0   -2240508.2            0   -2240508.2   -121.62714 
[...]
    1147            0   -2240508.6            0   -2240508.6 -0.034512288     15650213 
    1148            0   -2240508.6            0   -2240508.6   0.68172187     15650197 
    1149            0   -2240508.6            0   -2240508.6   -0.1941174     15650216 
    1150            0   -2240508.6            0   -2240508.6   0.27382564     15650206 
    1151            0   -2240508.6            0   -2240508.6 -0.030995352     15650212 
    1152            0   -2240508.6            0   -2240508.6  0.027827654     15650211 
    1153            0   -2240508.6            0   -2240508.6 -0.0033221963     15650212 
    1154            0   -2240508.6            0   -2240508.6 0.0021710501     15650212 
    1155            0   -2240508.6            0   -2240508.6 -0.00092844328     15650212 
    1156            0   -2240508.6            0   -2240508.6 0.00095544071     15650212 
    1157            0   -2240508.6            0   -2240508.6 -0.0075630703     15650212 
    1158            0   -2240508.6            0   -2240508.6 0.0068907545     15650212 
    1159            0   -2240508.6            0   -2240508.6  -0.15714836     15650215 
    1160            0   -2240508.6            0   -2240508.6 -0.00039081964     15650211 
    1161            0   -2240508.6            0   -2240508.6   0.48446347     15650200 
    1162            0   -2240508.6            0   -2240508.6 -0.0040944686     15650211 
    1163            0   -2240508.6            0   -2240508.6 -0.018615745     15650211 
    1164            0   -2240508.6            0   -2240508.6 0.00031108871     15650211 
    1165            0   -2240508.6            0   -2240508.6 0.0013986739     15650211 
    1166            0   -2240508.6            0   -2240508.6 -0.0067530634     15650211 
    1167            0   -2240508.6            0   -2240508.6  0.068705728     15650209 
    1168            0   -2240508.6            0   -2240508.6  -0.11295841     15650213 
    1169            0   -2240508.6            0   -2240508.6 0.00073805041     15650210 
    1170            0   -2240508.6            0   -2240508.6 0.00023988335     15650211 
    1171            0   -2240508.6            0   -2240508.6 -0.0015980254     15650211 
    1172            0   -2240508.6            0   -2240508.6 -0.00060418728     15650211 
    1173            0   -2240508.6            0   -2240508.6 -0.00045118593     15650211 
    1174            0   -2240508.6            0   -2240508.6 0.0018727887     15650210 
    1175            0   -2240508.6            0   -2240508.6 -0.00031303843     15650211 
    1176            0   -2240508.6            0   -2240508.6 -0.044404138     15650211 
    1177            0   -2240508.6            0   -2240508.6  0.012304733     15650210 
    1178            0   -2240508.6            0   -2240508.6   0.14045537     15650207 
    1179            0   -2240508.6            0   -2240508.6 -0.015746277     15650211 
    1180            0   -2240508.6            0   -2240508.6 0.0013417351     15650211 
    1181            0   -2240508.6            0   -2240508.6 -0.0010750461     15650211 
    1182            0   -2240508.6            0   -2240508.6  4.41104e-05     15650211 
    1183            0   -2240508.6            0   -2240508.6 -0.006553682     15650211 
    1184            0   -2240508.6            0   -2240508.6 -0.0096893078     15650211 
    1185            0   -2240508.6            0   -2240508.6 0.0048726076     15650210 
    1186            0   -2240508.6            0   -2240508.6 0.0085168838     15650210 
    1187            0   -2240508.6            0   -2240508.6 0.0039221507     15650210 
    1188            0   -2240508.6            0   -2240508.6 -0.0061036075     15650211 
    1189            0   -2240508.6            0   -2240508.6 0.00026322181     15650211 
    1190            0   -2240508.6            0   -2240508.6 -0.00042687025     15650211 
    1191            0   -2240508.6            0   -2240508.6 0.00053419407     15650211 
    1192            0   -2240508.6            0   -2240508.6 -0.0022991003     15650211 
    1193            0   -2240508.6            0   -2240508.6 0.0038003814     15650210 
    1194            0   -2240508.6            0   -2240508.6 -0.013385516     15650211 
    1195            0   -2240508.6            0   -2240508.6  0.028093487     15650210 
    1196            0   -2240508.6            0   -2240508.6  -0.06545232     15650212 
    1197            0   -2240508.6            0   -2240508.6   0.16174778     15650207 
    1198            0   -2240508.6            0   -2240508.6  -0.10006749     15650213 
    1199            0   -2240508.6            0   -2240508.6   0.11114693     15650208 
    1200            0   -2240508.6            0   -2240508.6 -0.011315361     15650211 
    1201            0   -2240508.6            0   -2240508.6  0.022084583     15650210 
    1202            0   -2240508.6            0   -2240508.6 0.00064874588     15650211 
    1203            0   -2240508.6            0   -2240508.6 -0.0010752869     15650211 
    1204            0   -2240508.6            0   -2240508.6 0.00016116372     15650211 
Loop time of 12.4706 on 128 procs for 86 steps with 544000 atoms

99.9% CPU use with 128 MPI tasks x no OpenMP threads

Minimization stats:
  Stopping criterion = energy tolerance
  Energy initial, next-to-last, final = 
     -2240508.23813892  -2240508.61232095  -2240508.61232095
  Force two-norm initial, final = 2520.7352 0.012447009
  Force max component initial, final = 1782.4289 0.0078387724
  Final line search alpha, max atom move = 0.43264589 0.0033914127
  Iterations, force evaluations = 86 214

MPI task timing breakdown:
Section |  min time  |  avg time  |  max time  |%varavg| %total
---------------------------------------------------------------
Pair    | 9.2535e-05 | 2.7713     | 7.5926     | 195.0 | 22.22
Neigh   | 0.00094358 | 2.0674     | 5.3318     | 173.8 | 16.58
Comm    | 0.0018348  | 0.17743    | 4.3301     | 119.4 |  1.42
Output  | 0.00778    | 0.0079001  | 0.0082992  |   0.1 |  0.06
Modify  | 0          | 0          | 0          |   0.0 |  0.00
Other   |            | 7.447      |            |       | 59.71

Nlocal:           4250 ave       10800 max           0 min
Histogram: 76 0 0 0 0 0 0 0 1 51
Nghost:        5452.45 ave       13694 max           0 min
Histogram: 74 2 0 0 0 0 2 0 0 50
Neighs:         355946 ave      908352 max           0 min
Histogram: 76 0 0 0 0 0 0 0 2 50

Total # of neighbors = 45561036
Ave neighs/atom = 83.751904
Neighbor list builds = 190
Dangerous builds = 182
WARNING: Using 'neigh_modify every 1 delay 0 check yes' setting during minimization (../min.cpp:187)
Setting up cg style minimization ...
  Unit style    : metal
  Current step  : 1204
Per MPI rank memory allocation (min/avg/max) = 4.335 | 7.351 | 12.06 Mbytes
Step Temp E_pair E_mol TotEng Press 
    1204            0   -2240508.6            0   -2240508.6 0.00016116373 
    1205            0   -2240508.6            0   -2240508.6 -0.00094538875 
    1206            0   -2240508.6            0   -2240508.6 -0.010879301 
    1207            0   -2240508.6            0   -2240508.6 -0.011100088 
    1208            0   -2240508.6            0   -2240508.6 -0.010874454 
    1209            0   -2240508.6            0   -2240508.6 -0.013306946 
    1210            0   -2240508.6            0   -2240508.6  -0.01399846 
    1211            0   -2240508.6            0   -2240508.6 -0.014227296 
    1212            0   -2240508.6            0   -2240508.6 -0.014918858 
    1213            0   -2240508.6            0   -2240508.6 -0.014037244 
    1214            0   -2240508.6            0   -2240508.6 -0.013273825 
    1215            0   -2240508.6            0   -2240508.6 -0.014722575 
    1216            0   -2240508.6            0   -2240508.6 -0.016831317 
    1217            0   -2240508.6            0   -2240508.6  -0.01765536 
    1218            0   -2240508.6            0   -2240508.6 -0.017227513 
    1219            0   -2240508.6            0   -2240508.6 -0.016654962 
    1220            0   -2240508.6            0   -2240508.6 -0.016725193 
    1221            0   -2240508.6            0   -2240508.6 -0.016990524 
    1222            0   -2240508.6            0   -2240508.6 -0.016990524 
Loop time of 1.52702 on 128 procs for 18 steps with 544000 atoms

99.9% CPU use with 128 MPI tasks x no OpenMP threads

Minimization stats:
  Stopping criterion = linesearch alpha is zero
  Energy initial, next-to-last, final = 
     -2240508.61232095  -2240508.61233234  -2240508.61233234
  Force two-norm initial, final = 0.0094137583 0.00050587828
  Force max component initial, final = 8.9912279e-05 5.0175108e-06
  Final line search alpha, max atom move = 0.03125 1.5679721e-07
  Iterations, force evaluations = 18 45

MPI task timing breakdown:
Section |  min time  |  avg time  |  max time  |%varavg| %total
---------------------------------------------------------------
Pair    | 1.9517e-05 | 0.55766    | 1.4295     |  88.6 | 36.52
Neigh   | 0          | 0          | 0          |   0.0 |  0.00
Comm    | 1.2411e-05 | 0.031174   | 0.86367    |  57.9 |  2.04
Output  | 0.0019338  | 0.0019678  | 0.002037   |   0.1 |  0.13
Modify  | 0          | 0          | 0          |   0.0 |  0.00
Other   |            | 0.9362     |            |       | 61.31

Nlocal:           4250 ave       10800 max           0 min
Histogram: 76 0 0 0 0 0 0 0 1 51
Nghost:        5452.45 ave       13694 max           0 min
Histogram: 74 2 0 0 0 0 2 0 0 50
Neighs:         355946 ave      908352 max           0 min
Histogram: 76 0 0 0 0 0 0 0 2 50

Total # of neighbors = 45561036
Ave neighs/atom = 83.751904
Neighbor list builds = 0
Dangerous builds = 0
WARNING: One or more atoms are time integrated more than once (../modify.cpp:281)
Setting up Verlet run ...
  Unit style    : metal
  Current step  : 1222
  Time step     : 0.0005
ERROR on proc 30: Substitution for illegal variable u1 (../input.cpp:612)
ERROR on proc 31: Substitution for illegal variable u1 (../input.cpp:612)
ERROR on proc 0: Substitution for illegal variable u1 (../input.cpp:612)
ERROR on proc 6: Substitution for illegal variable u1 (../input.cpp:612)
ERROR on proc 7: Substitution for illegal variable u1 (../input.cpp:612)
ERROR on proc 8: Substitution for illegal variable u1 (../input.cpp:612)
ERROR on proc 9: Substitution for illegal variable u1 (../input.cpp:612)
ERROR on proc 10: Substitution for illegal variable u1 (../input.cpp:612)
ERROR on proc 11: Substitution for illegal variable u1 (../input.cpp:612)
ERROR on proc 12: Substitution for illegal variable u1 (../input.cpp:612)
ERROR on proc 13: Substitution for illegal variable u1 (../input.cpp:612)
ERROR on proc 14: Substitution for illegal variable u1 (../input.cpp:612)
ERROR on proc 15: Substitution for illegal variable u1 (../input.cpp:612)
ERROR on proc 16: Substitution for illegal variable u1 (../input.cpp:612)
ERROR on proc 17: Substitution for illegal variable u1 (../input.cpp:612)
ERROR on proc 18: Substitution for illegal variable u1 (../input.cpp:612)
ERROR on proc 19: Substitution for illegal variable u1 (../input.cpp:612)
ERROR on proc 20: Substitution for illegal variable u1 (../input.cpp:612)
ERROR on proc 21: Substitution for illegal variable u1 (../input.cpp:612)
ERROR on proc 22: Substitution for illegal variable u1 (../input.cpp:612)
ERROR on proc 23: Substitution for illegal variable u1 (../input.cpp:612)
ERROR on proc 24: Substitution for illegal variable u1 (../input.cpp:612)
ERROR on proc 25: Substitution for illegal variable u1 (../input.cpp:612)
ERROR on proc 26: Substitution for illegal variable u1 (../input.cpp:612)
ERROR on proc 27: Substitution for illegal variable u1 (../input.cpp:612)
ERROR on proc 28: Substitution for illegal variable u1 (../input.cpp:612)
ERROR on proc 29: Substitution for illegal variable u1 (../input.cpp:612)
ERROR on proc 1: Substitution for illegal variable u1 (../input.cpp:612)
ERROR on proc 2: Substitution for illegal variable u1 (../input.cpp:612)
ERROR on proc 3: Substitution for illegal variable u1 (../input.cpp:612)
ERROR on proc 4: Substitution for illegal variable u1 (../input.cpp:612)
ERROR on proc 5: Substitution for illegal variable u1 (../input.cpp:612)
--------------------------------------------------------------------------
MPI_ABORT was invoked on rank 31 in communicator MPI_COMM_WORLD
with errorcode 1.

NOTE: invoking MPI_ABORT causes Open MPI to kill all MPI processes.
You may or may not see output from other processes, depending on
exactly when Open MPI kills them.
--------------------------------------------------------------------------
ERROR on proc 121: Substitution for illegal variable u1 (../input.cpp:612)
ERROR on proc 33: Substitution for illegal variable u1 (../input.cpp:612)
ERROR on proc 122: Substitution for illegal variable u1 (../input.cpp:612)
ERROR on proc 34: Substitution for illegal variable u1 (../input.cpp:612)
ERROR on proc 123: Substitution for illegal variable u1 (../input.cpp:612)
ERROR on proc 35: Substitution for illegal variable u1 (../input.cpp:612)
ERROR on proc 93: Substitution for illegal variable u1 (../input.cpp:612)
ERROR on proc 124: Substitution for illegal variable u1 (../input.cpp:612)
ERROR on proc 36: Substitution for illegal variable u1 (../input.cpp:612)
ERROR on proc 94: Substitution for illegal variable u1 (../input.cpp:612)
ERROR on proc 125: Substitution for illegal variable u1 (../input.cpp:612)
ERROR on proc 37: Substitution for illegal variable u1 (../input.cpp:612)
ERROR on proc 95: Substitution for illegal variable u1 (../input.cpp:612)
ERROR on proc 126: Substitution for illegal variable u1 (../input.cpp:612)
ERROR on proc 38: Substitution for illegal variable u1 (../input.cpp:612)
ERROR on proc 64: Substitution for illegal variable u1 (../input.cpp:612)
ERROR on proc 127: Substitution for illegal variable u1 (../input.cpp:612)
ERROR on proc 39: Substitution for illegal variable u1 (../input.cpp:612)
ERROR on proc 65: Substitution for illegal variable u1 (../input.cpp:612)
ERROR on proc 96: Substitution for illegal variable u1 (../input.cpp:612)
ERROR on proc 40: Substitution for illegal variable u1 (../input.cpp:612)
ERROR on proc 66: Substitution for illegal variable u1 (../input.cpp:612)
ERROR on proc 97: Substitution for illegal variable u1 (../input.cpp:612)
ERROR on proc 41: Substitution for illegal variable u1 (../input.cpp:612)
ERROR on proc 67: Substitution for illegal variable u1 (../input.cpp:612)
ERROR on proc 98: Substitution for illegal variable u1 (../input.cpp:612)
ERROR on proc 42: Substitution for illegal variable u1 (../input.cpp:612)
ERROR on proc 68: Substitution for illegal variable u1 (../input.cpp:612)
ERROR on proc 99: Substitution for illegal variable u1 (../input.cpp:612)
ERROR on proc 43: Substitution for illegal variable u1 (../input.cpp:612)
ERROR on proc 69: Substitution for illegal variable u1 (../input.cpp:612)
ERROR on proc 100: Substitution for illegal variable u1 (../input.cpp:612)
ERROR on proc 44: Substitution for illegal variable u1 (../input.cpp:612)
ERROR on proc 70: Substitution for illegal variable u1 (../input.cpp:612)
ERROR on proc 101: Substitution for illegal variable u1 (../input.cpp:612)
ERROR on proc 45: Substitution for illegal variable u1 (../input.cpp:612)
ERROR on proc 71: Substitution for illegal variable u1 (../input.cpp:612)
ERROR on proc 102: Substitution for illegal variable u1 (../input.cpp:612)
ERROR on proc 46: Substitution for illegal variable u1 (../input.cpp:612)
ERROR on proc 72: Substitution for illegal variable u1 (../input.cpp:612)
ERROR on proc 103: Substitution for illegal variable u1 (../input.cpp:612)
ERROR on proc 47: Substitution for illegal variable u1 (../input.cpp:612)
ERROR on proc 73: Substitution for illegal variable u1 (../input.cpp:612)
ERROR on proc 104: Substitution for illegal variable u1 (../input.cpp:612)
ERROR on proc 48: Substitution for illegal variable u1 (../input.cpp:612)
ERROR on proc 74: Substitution for illegal variable u1 (../input.cpp:612)
ERROR on proc 105: Substitution for illegal variable u1 (../input.cpp:612)
ERROR on proc 49: Substitution for illegal variable u1 (../input.cpp:612)
ERROR on proc 75: Substitution for illegal variable u1 (../input.cpp:612)
ERROR on proc 106: Substitution for illegal variable u1 (../input.cpp:612)
ERROR on proc 50: Substitution for illegal variable u1 (../input.cpp:612)
ERROR on proc 76: Substitution for illegal variable u1 (../input.cpp:612)
ERROR on proc 107: Substitution for illegal variable u1 (../input.cpp:612)
ERROR on proc 51: Substitution for illegal variable u1 (../input.cpp:612)
ERROR on proc 77: Substitution for illegal variable u1 (../input.cpp:612)
ERROR on proc 108: Substitution for illegal variable u1 (../input.cpp:612)
ERROR on proc 52: Substitution for illegal variable u1 (../input.cpp:612)
ERROR on proc 78: Substitution for illegal variable u1 (../input.cpp:612)
ERROR on proc 109: Substitution for illegal variable u1 (../input.cpp:612)
ERROR on proc 53: Substitution for illegal variable u1 (../input.cpp:612)
ERROR on proc 79: Substitution for illegal variable u1 (../input.cpp:612)
ERROR on proc 110: Substitution for illegal variable u1 (../input.cpp:612)
ERROR on proc 54: Substitution for illegal variable u1 (../input.cpp:612)
ERROR on proc 80: Substitution for illegal variable u1 (../input.cpp:612)
ERROR on proc 111: Substitution for illegal variable u1 (../input.cpp:612)
ERROR on proc 55: Substitution for illegal variable u1 (../input.cpp:612)
ERROR on proc 81: Substitution for illegal variable u1 (../input.cpp:612)
ERROR on proc 112: Substitution for illegal variable u1 (../input.cpp:612)
ERROR on proc 56: Substitution for illegal variable u1 (../input.cpp:612)
ERROR on proc 82: Substitution for illegal variable u1 (../input.cpp:612)
ERROR on proc 113: Substitution for illegal variable u1 (../input.cpp:612)
ERROR on proc 57: Substitution for illegal variable u1 (../input.cpp:612)
ERROR on proc 83: Substitution for illegal variable u1 (../input.cpp:612)
ERROR on proc 114: Substitution for illegal variable u1 (../input.cpp:612)
ERROR on proc 58: Substitution for illegal variable u1 (../input.cpp:612)
ERROR on proc 84: Substitution for illegal variable u1 (../input.cpp:612)
ERROR on proc 115: Substitution for illegal variable u1 (../input.cpp:612)
ERROR on proc 59: Substitution for illegal variable u1 (../input.cpp:612)
ERROR on proc 85: Substitution for illegal variable u1 (../input.cpp:612)
ERROR on proc 116: Substitution for illegal variable u1 (../input.cpp:612)
ERROR on proc 60: Substitution for illegal variable u1 (../input.cpp:612)
ERROR on proc 86: Substitution for illegal variable u1 (../input.cpp:612)
ERROR on proc 117: Substitution for illegal variable u1 (../input.cpp:612)
ERROR on proc 61: Substitution for illegal variable u1 (../input.cpp:612)
ERROR on proc 87: Substitution for illegal variable u1 (../input.cpp:612)
ERROR on proc 118: Substitution for illegal variable u1 (../input.cpp:612)
ERROR on proc 62: Substitution for illegal variable u1 (../input.cpp:612)
ERROR on proc 63: Substitution for illegal variable u1 (../input.cpp:612)
ERROR on proc 88: Substitution for illegal variable u1 (../input.cpp:612)
ERROR on proc 119: Substitution for illegal variable u1 (../input.cpp:612)
ERROR on proc 89: Substitution for illegal variable u1 (../input.cpp:612)
ERROR on proc 120: Substitution for illegal variable u1 (../input.cpp:612)
ERROR on proc 32: Substitution for illegal variable u1 (../input.cpp:612)
ERROR on proc 90: Substitution for illegal variable u1 (../input.cpp:612)
ERROR on proc 91: Substitution for illegal variable u1 (../input.cpp:612)
ERROR on proc 92: Substitution for illegal variable u1 (../input.cpp:612)
[r228n05:130414] 127 more processes have sent help message help-mpi-api.txt / mpi-abort
[r228n05:130414] Set MCA parameter "orte_base_help_aggregate" to 0 to see all help / error messages
