# Fe

0 atoms
9 atom types
0   431.153924 xlo xhi
0    57.106480 ylo yhi
0    57.106480 zlo zhi

Atoms

