LAMMPS data file via write_data, version 29 Sep 2021, timestep = 0

2000 atoms
1 atom types

0.22337690444404748 28.77662309555595 xlo xhi
0.22337690444404748 28.77662309555595 ylo yhi
0.22337690444404754 28.77662309555595 zlo zhi

Masses

1 55.845

Atoms # atomic/kk

35 1 5.9340261426667409e+00 5.9340261426668173e+00 5.9340261426668288e+00 0 0 0
2 1 1.6510392139995946e+00 1.6510392139995946e+00 1.6510392139995691e+00 0 0 0
3 1 3.0787015235554298e+00 2.2337690444406613e-01 2.2337690444410380e-01 0 0 0
4 1 4.5063638331104672e+00 1.6510392139995869e+00 1.6510392139995544e+00 0 0 0
5 1 5.9340261426667764e+00 2.2337690444404895e-01 2.2337690444410505e-01 0 0 0
6 1 2.2337690444406635e-01 3.0787015235554289e+00 2.2337690444410269e-01 0 0 0
7 1 1.6510392139995884e+00 4.5063638331104698e+00 1.6510392139995564e+00 0 0 0
8 1 3.0787015235553938e+00 3.0787015235553938e+00 2.2337690444410876e-01 0 0 0
9 1 4.5063638331104627e+00 4.5063638331104618e+00 1.6510392139995693e+00 0 0 0
10 1 5.9340261426667702e+00 3.0787015235553659e+00 2.2337690444408115e-01 0 0 0
11 1 2.2337690444405284e-01 5.9340261426667658e+00 2.2337690444409783e-01 0 0 0
12 1 3.0787015235553699e+00 5.9340261426667427e+00 2.2337690444408750e-01 0 0 0
13 1 5.9340261426668164e+00 5.9340261426668119e+00 2.2337690444409797e-01 0 0 0
34 1 3.0787015235554280e+00 5.9340261426667880e+00 5.9340261426668297e+00 0 0 0
15 1 1.6510392139995727e+00 1.6510392139995724e+00 4.5063638331105826e+00 0 0 0
16 1 3.0787015235554258e+00 2.2337690444405817e-01 3.0787015235553259e+00 0 0 0
17 1 4.5063638331104645e+00 1.6510392139995791e+00 4.5063638331105453e+00 0 0 0
31 1 3.0787015235554160e+00 3.0787015235554120e+00 5.9340261426668475e+00 0 0 0
19 1 2.2337690444405719e-01 3.0787015235554231e+00 3.0787015235553277e+00 0 0 0
20 1 1.6510392139995760e+00 4.5063638331104698e+00 4.5063638331105427e+00 0 0 0
21 1 3.0787015235553938e+00 3.0787015235553938e+00 3.0787015235553206e+00 0 0 0
22 1 4.5063638331104681e+00 4.5063638331104725e+00 4.5063638331105942e+00 0 0 0
23 1 5.9340261426668262e+00 3.0787015235553743e+00 3.0787015235553228e+00 0 0 0
24 1 2.2337690444405450e-01 5.9340261426668288e+00 3.0787015235553241e+00 0 0 0
25 1 3.0787015235553756e+00 5.9340261426668111e+00 3.0787015235553223e+00 0 0 0
26 1 5.9340261426668111e+00 5.9340261426668501e+00 3.0787015235553170e+00 0 0 0
27 1 2.2337690444405744e-01 2.2337690444405545e-01 5.9340261426668022e+00 0 0 0
32 1 5.9340261426668164e+00 3.0787015235554218e+00 5.9340261426668315e+00 0 0 0
36 1 1.6510392139995873e+00 1.6510392139995853e+00 7.3616884522219372e+00 0 0 0
37 1 4.5063638331104716e+00 1.6510392139995873e+00 7.3616884522219692e+00 0 0 0
38 1 1.6510392139995873e+00 4.5063638331104725e+00 7.3616884522219728e+00 0 0 0
39 1 4.5063638331104618e+00 4.5063638331104663e+00 7.3616884522219230e+00 0 0 0
60 1 3.0787015235554009e+00 3.0787015235554032e+00 1.1644675380888582e+01 0 0 0
59 1 1.6510392139995902e+00 4.5063638331104672e+00 1.3072337690444435e+01 0 0 0
58 1 2.2337690444404856e-01 3.0787015235554045e+00 1.1644675380888588e+01 0 0 0
57 1 5.9340261426667924e+00 2.2337690444404751e-01 1.1644675380888641e+01 0 0 0
65 1 5.9340261426668066e+00 5.9340261426668066e+00 1.1644675380888579e+01 0 0 0
41 1 1.6510392139995873e+00 1.6510392139995853e+00 1.0217013071333920e+01 0 0 0
42 1 3.0787015235554023e+00 2.2337690444404898e-01 8.7893507617770155e+00 0 0 0
43 1 4.5063638331104316e+00 1.6510392139996017e+00 1.0217013071333950e+01 0 0 0
61 1 4.5063638331104672e+00 4.5063638331104672e+00 1.3072337690444487e+01 0 0 0
64 1 3.0787015235553832e+00 5.9340261426667755e+00 1.1644675380888604e+01 0 0 0
46 1 1.6510392139996104e+00 4.5063638331104308e+00 1.0217013071333952e+01 0 0 0
47 1 3.0787015235554001e+00 3.0787015235554014e+00 8.7893507617770226e+00 0 0 0
48 1 4.5063638331104388e+00 4.5063638331104423e+00 1.0217013071333934e+01 0 0 0
49 1 5.9340261426667844e+00 3.0787015235554089e+00 8.7893507617769870e+00 0 0 0
63 1 2.2337690444404940e-01 5.9340261426667906e+00 1.1644675380888641e+01 0 0 0
51 1 3.0787015235554085e+00 5.9340261426667764e+00 8.7893507617769941e+00 0 0 0
52 1 5.9340261426668173e+00 5.9340261426668457e+00 8.7893507617770261e+00 0 0 0
62 1 5.9340261426667764e+00 3.0787015235553854e+00 1.1644675380888605e+01 0 0 0
54 1 1.6510392139995884e+00 1.6510392139995946e+00 1.3072337690444499e+01 0 0 0
55 1 3.0787015235554076e+00 2.2337690444405001e-01 1.1644675380888588e+01 0 0 0
56 1 4.5063638331104681e+00 1.6510392139995873e+00 1.3072337690444440e+01 0 0 0
68 1 3.0787015235554023e+00 2.2337690444405656e-01 1.4499999999999392e+01 0 0 0
71 1 2.2337690444405922e-01 3.0787015235553978e+00 1.4499999999999392e+01 0 0 0
73 1 3.0787015235553978e+00 3.0787015235553965e+00 1.4499999999999398e+01 0 0 0
75 1 5.9340261426667862e+00 3.0787015235553925e+00 1.4499999999999451e+01 0 0 0
77 1 3.0787015235553938e+00 5.9340261426667720e+00 1.4499999999999439e+01 0 0 0
78 1 5.9340261426667693e+00 5.9340261426668164e+00 1.4499999999999380e+01 0 0 0
100 1 5.9340261426667622e+00 5.9340261426668235e+00 2.0210649238223013e+01 0 0 0
67 1 1.6510392139995818e+00 1.6510392139995855e+00 1.5927662309556572e+01 0 0 0
96 1 3.0787015235553996e+00 3.0787015235553987e+00 2.0210649238222953e+01 0 0 0
69 1 4.5063638331104769e+00 1.6510392139995880e+00 1.5927662309556496e+01 0 0 0
92 1 2.2337690444406580e-01 2.2337690444406591e-01 2.0210649238223017e+01 0 0 0
88 1 5.9340261426668217e+00 3.0787015235554125e+00 1.7355324619111169e+01 0 0 0
72 1 1.6510392139995844e+00 4.5063638331104805e+00 1.5927662309556499e+01 0 0 0
87 1 4.5063638331104601e+00 4.5063638331104610e+00 1.8782986928665768e+01 0 0 0
74 1 4.5063638331104752e+00 4.5063638331104761e+00 1.5927662309556553e+01 0 0 0
86 1 3.0787015235554023e+00 3.0787015235554009e+00 1.7355324619111173e+01 0 0 0
99 1 3.0787015235554085e+00 5.9340261426667986e+00 2.0210649238222960e+01 0 0 0
85 1 1.6510392139996133e+00 4.5063638331104645e+00 1.8782986928665768e+01 0 0 0
97 1 5.9340261426668208e+00 3.0787015235554085e+00 2.0210649238222963e+01 0 0 0
79 1 2.2337690444405811e-01 2.2337690444405861e-01 1.7355324619111155e+01 0 0 0
80 1 1.6510392139995662e+00 1.6510392139995662e+00 1.8782986928665757e+01 0 0 0
91 1 5.9340261426667693e+00 5.9340261426668510e+00 1.7355324619111116e+01 0 0 0
82 1 4.5063638331104734e+00 1.6510392139996035e+00 1.8782986928665764e+01 0 0 0
90 1 3.0787015235554120e+00 5.9340261426667960e+00 1.7355324619111176e+01 0 0 0
101 1 1.6510392139995544e+00 1.6510392139995547e+00 2.1638311547778017e+01 0 0 0
102 1 4.5063638331104832e+00 1.6510392139995713e+00 2.1638311547778024e+01 0 0 0
103 1 1.6510392139995622e+00 4.5063638331104894e+00 2.1638311547778017e+01 0 0 0
104 1 4.5063638331105009e+00 4.5063638331105009e+00 2.1638311547778024e+01 0 0 0
105 1 2.2337690444404765e-01 2.2337690444404823e-01 2.3065973857333439e+01 0 0 0
106 1 1.6510392139995786e+00 1.6510392139995802e+00 2.4493636166889587e+01 0 0 0
129 1 3.0787015235554378e+00 5.9340261426667666e+00 2.5921298476444278e+01 0 0 0
108 1 4.5063638331104663e+00 1.6510392139995753e+00 2.4493636166889576e+01 0 0 0
127 1 5.9340261426667826e+00 3.0787015235554400e+00 2.5921298476444253e+01 0 0 0
130 1 5.9340261426667746e+00 5.9340261426668048e+00 2.5921298476444271e+01 0 0 0
111 1 1.6510392139995822e+00 4.5063638331104645e+00 2.4493636166889576e+01 0 0 0
112 1 3.0787015235553961e+00 3.0787015235553934e+00 2.3065973857333443e+01 0 0 0
113 1 4.5063638331104752e+00 4.5063638331104769e+00 2.4493636166889583e+01 0 0 0
114 1 5.9340261426668173e+00 3.0787015235554156e+00 2.3065973857333422e+01 0 0 0
115 1 2.2337690444406294e-01 5.9340261426667995e+00 2.3065973857333432e+01 0 0 0
116 1 3.0787015235554214e+00 5.9340261426668119e+00 2.3065973857333439e+01 0 0 0
117 1 5.9340261426667409e+00 5.9340261426668182e+00 2.3065973857333432e+01 0 0 0
118 1 2.2337690444405200e-01 2.2337690444405373e-01 2.5921298476444257e+01 0 0 0
119 1 1.6510392139995842e+00 1.6510392139995820e+00 2.7348960786000539e+01 0 0 0
120 1 3.0787015235553787e+00 2.2337690444406344e-01 2.5921298476444246e+01 0 0 0
121 1 4.5063638331104796e+00 1.6510392139995822e+00 2.7348960786000628e+01 0 0 0
126 1 4.5063638331104743e+00 4.5063638331104752e+00 2.7348960786000504e+01 0 0 0
123 1 2.2337690444405997e-01 3.0787015235553783e+00 2.5921298476444242e+01 0 0 0
124 1 1.6510392139995771e+00 4.5063638331104867e+00 2.7348960786000617e+01 0 0 0
125 1 3.0787015235554023e+00 3.0787015235554023e+00 2.5921298476444218e+01 0 0 0
131 1 1.6510392139995620e+00 7.3616884522220598e+00 1.6510392139996299e+00 0 0 0
132 1 4.5063638331105018e+00 7.3616884522220642e+00 1.6510392139996224e+00 0 0 0
160 1 5.9340261426667693e+00 1.1644675380888989e+01 5.9340261426668253e+00 0 0 0
134 1 1.6510392139995835e+00 1.0217013071333600e+01 1.6510392139995775e+00 0 0 0
135 1 3.0787015235554080e+00 8.7893507617770812e+00 2.2337690444410047e-01 0 0 0
136 1 4.5063638331104734e+00 1.0217013071333591e+01 1.6510392139995764e+00 0 0 0
137 1 5.9340261426667915e+00 8.7893507617770830e+00 2.2337690444408848e-01 0 0 0
138 1 2.2337690444405128e-01 1.1644675380888952e+01 2.2337690444410024e-01 0 0 0
139 1 1.6510392139995582e+00 1.3072337690444241e+01 1.6510392139996251e+00 0 0 0
140 1 3.0787015235554054e+00 1.1644675380888939e+01 2.2337690444408262e-01 0 0 0
141 1 4.5063638331104823e+00 1.3072337690444245e+01 1.6510392139996302e+00 0 0 0
142 1 5.9340261426668270e+00 1.1644675380888909e+01 2.2337690444409003e-01 0 0 0
143 1 1.6510392139995660e+00 7.3616884522220563e+00 4.5063638331105054e+00 0 0 0
144 1 4.5063638331105036e+00 7.3616884522220474e+00 4.5063638331105746e+00 0 0 0
159 1 3.0787015235553996e+00 1.1644675380888932e+01 5.9340261426668288e+00 0 0 0
146 1 1.6510392139996029e+00 1.0217013071333602e+01 4.5063638331105871e+00 0 0 0
147 1 3.0787015235553952e+00 8.7893507617770741e+00 3.0787015235553259e+00 0 0 0
148 1 4.5063638331104370e+00 1.0217013071333600e+01 4.5063638331105569e+00 0 0 0
149 1 5.9340261426668164e+00 8.7893507617770581e+00 3.0787015235553277e+00 0 0 0
150 1 2.2337690444406280e-01 1.1644675380889005e+01 3.0787015235553197e+00 0 0 0
151 1 1.6510392139995733e+00 1.3072337690444240e+01 4.5063638331104992e+00 0 0 0
152 1 3.0787015235553903e+00 1.1644675380888970e+01 3.0787015235553268e+00 0 0 0
153 1 4.5063638331104992e+00 1.3072337690444240e+01 4.5063638331105764e+00 0 0 0
154 1 5.9340261426668359e+00 1.1644675380888975e+01 3.0787015235553077e+00 0 0 0
157 1 5.9340261426667986e+00 8.7893507617770119e+00 5.9340261426668430e+00 0 0 0
156 1 3.0787015235553974e+00 8.7893507617770954e+00 5.9340261426668306e+00 0 0 0
251 1 2.2337690444405406e-01 1.4499999999999586e+01 2.2337690444410133e-01 0 0 0
253 1 3.0787015235554005e+00 1.4499999999999607e+01 2.2337690444409028e-01 0 0 0
255 1 5.9340261426668430e+00 1.4499999999999625e+01 2.2337690444409547e-01 0 0 0
266 1 3.0787015235553841e+00 1.4499999999999597e+01 3.0787015235553059e+00 0 0 0
268 1 5.9340261426668164e+00 1.4499999999999551e+01 3.0787015235553001e+00 0 0 0
279 1 5.9340261426667817e+00 1.4499999999999577e+01 5.9340261426668288e+00 0 0 0
278 1 3.0787015235553898e+00 1.4499999999999597e+01 5.9340261426668324e+00 0 0 0
161 1 1.6510392139995806e+00 7.3616884522220563e+00 7.3616884522219816e+00 0 0 0
162 1 4.5063638331105054e+00 7.3616884522220598e+00 7.3616884522219515e+00 0 0 0
163 1 1.6510392139996009e+00 1.0217013071333595e+01 7.3616884522219550e+00 0 0 0
164 1 4.5063638331104308e+00 1.0217013071333596e+01 7.3616884522219701e+00 0 0 0
165 1 1.6510392139995929e+00 1.3072337690444254e+01 7.3616884522219914e+00 0 0 0
166 1 4.5063638331105018e+00 1.3072337690444252e+01 7.3616884522219541e+00 0 0 0
307 1 5.9340261426667995e+00 1.4499999999999586e+01 1.1644675380888597e+01 0 0 0
305 1 3.0787015235554036e+00 1.4499999999999579e+01 1.1644675380888650e+01 0 0 0
294 1 5.9340261426667587e+00 1.4499999999999559e+01 8.7893507617770279e+00 0 0 0
292 1 3.0787015235553965e+00 1.4499999999999595e+01 8.7893507617769853e+00 0 0 0
290 1 2.2337690444405300e-01 1.4499999999999568e+01 8.7893507617769746e+00 0 0 0
187 1 1.6510392139995875e+00 1.3072337690444257e+01 1.3072337690444421e+01 0 0 0
167 1 1.6510392139995724e+00 7.3616884522220696e+00 1.0217013071333941e+01 0 0 0
168 1 4.5063638331105063e+00 7.3616884522220580e+00 1.0217013071333918e+01 0 0 0
190 1 5.9340261426668235e+00 1.1644675380888936e+01 1.1644675380888605e+01 0 0 0
170 1 1.6510392139996029e+00 1.0217013071333596e+01 1.0217013071333936e+01 0 0 0
171 1 3.0787015235553996e+00 8.7893507617770883e+00 8.7893507617769782e+00 0 0 0
172 1 4.5063638331104361e+00 1.0217013071333600e+01 1.0217013071333952e+01 0 0 0
173 1 5.9340261426668057e+00 8.7893507617770084e+00 8.7893507617769782e+00 0 0 0
189 1 4.5063638331104752e+00 1.3072337690444257e+01 1.3072337690444476e+01 0 0 0
175 1 1.6510392139995711e+00 1.3072337690444238e+01 1.0217013071333918e+01 0 0 0
176 1 3.0787015235553974e+00 1.1644675380888945e+01 8.7893507617769977e+00 0 0 0
177 1 4.5063638331104974e+00 1.3072337690444254e+01 1.0217013071333913e+01 0 0 0
178 1 5.9340261426668270e+00 1.1644675380888984e+01 8.7893507617770084e+00 0 0 0
179 1 1.6510392139995873e+00 7.3616884522220580e+00 1.3072337690444421e+01 0 0 0
180 1 4.5063638331104858e+00 7.3616884522220598e+00 1.3072337690444479e+01 0 0 0
188 1 3.0787015235553961e+00 1.1644675380888946e+01 1.1644675380888597e+01 0 0 0
182 1 1.6510392139995835e+00 1.0217013071333595e+01 1.3072337690444474e+01 0 0 0
183 1 3.0787015235553969e+00 8.7893507617770830e+00 1.1644675380888602e+01 0 0 0
184 1 4.5063638331104787e+00 1.0217013071333589e+01 1.3072337690444440e+01 0 0 0
185 1 5.9340261426667675e+00 8.7893507617770776e+00 1.1644675380888609e+01 0 0 0
193 1 2.2337690444404901e-01 8.7893507617770723e+00 1.4499999999999439e+01 0 0 0
195 1 3.0787015235554085e+00 8.7893507617770830e+00 1.4499999999999439e+01 0 0 0
197 1 5.9340261426667755e+00 8.7893507617770670e+00 1.4499999999999437e+01 0 0 0
200 1 3.0787015235553956e+00 1.1644675380888946e+01 1.4499999999999439e+01 0 0 0
202 1 5.9340261426668137e+00 1.1644675380888968e+01 1.4499999999999396e+01 0 0 0
318 1 3.0787015235553987e+00 1.4499999999999602e+01 1.4499999999999433e+01 0 0 0
320 1 5.9340261426667738e+00 1.4499999999999549e+01 1.4499999999999387e+01 0 0 0
191 1 1.6510392139995689e+00 7.3616884522220536e+00 1.5927662309556499e+01 0 0 0
192 1 4.5063638331105080e+00 7.3616884522220536e+00 1.5927662309556561e+01 0 0 0
343 1 3.0787015235553774e+00 1.4499999999999591e+01 2.0210649238222963e+01 0 0 0
194 1 1.6510392139995937e+00 1.0217013071333596e+01 1.5927662309556556e+01 0 0 0
344 1 5.9340261426668137e+00 1.4499999999999567e+01 2.0210649238223013e+01 0 0 0
196 1 4.5063638331104370e+00 1.0217013071333593e+01 1.5927662309556528e+01 0 0 0
333 1 5.9340261426668190e+00 1.4499999999999563e+01 1.7355324619111116e+01 0 0 0
220 1 5.9340261426667738e+00 1.1644675380888984e+01 2.0210649238223013e+01 0 0 0
199 1 1.6510392139995711e+00 1.3072337690444250e+01 1.5927662309556492e+01 0 0 0
331 1 3.0787015235553903e+00 1.4499999999999597e+01 1.7355324619111162e+01 0 0 0
201 1 4.5063638331105063e+00 1.3072337690444243e+01 1.5927662309556569e+01 0 0 0
216 1 3.0787015235553863e+00 8.7893507617770776e+00 2.0210649238222953e+01 0 0 0
203 1 1.6510392139996131e+00 7.3616884522220563e+00 1.8782986928665771e+01 0 0 0
204 1 4.5063638331104974e+00 7.3616884522220598e+00 1.8782986928665764e+01 0 0 0
219 1 3.0787015235553863e+00 1.1644675380888939e+01 2.0210649238222963e+01 0 0 0
206 1 1.6510392139996188e+00 1.0217013071333596e+01 1.8782986928665764e+01 0 0 0
207 1 3.0787015235554005e+00 8.7893507617770936e+00 1.7355324619111173e+01 0 0 0
208 1 4.5063638331104219e+00 1.0217013071333600e+01 1.8782986928665768e+01 0 0 0
209 1 5.9340261426668066e+00 8.7893507617769924e+00 1.7355324619111158e+01 0 0 0
217 1 5.9340261426668066e+00 8.7893507617770137e+00 2.0210649238222963e+01 0 0 0
211 1 1.6510392139996208e+00 1.3072337690444254e+01 1.8782986928665768e+01 0 0 0
212 1 3.0787015235553956e+00 1.1644675380888932e+01 1.7355324619111173e+01 0 0 0
213 1 4.5063638331104885e+00 1.3072337690444236e+01 1.8782986928665764e+01 0 0 0
214 1 5.9340261426667826e+00 1.1644675380889019e+01 1.7355324619111130e+01 0 0 0
221 1 1.6510392139995642e+00 7.3616884522220420e+00 2.1638311547778024e+01 0 0 0
222 1 4.5063638331105116e+00 7.3616884522220420e+00 2.1638311547778027e+01 0 0 0
223 1 1.6510392139995884e+00 1.0217013071333646e+01 2.1638311547778024e+01 0 0 0
224 1 4.5063638331104681e+00 1.0217013071333648e+01 2.1638311547778031e+01 0 0 0
225 1 1.6510392139995764e+00 1.3072337690444236e+01 2.1638311547778006e+01 0 0 0
226 1 4.5063638331105178e+00 1.3072337690444231e+01 2.1638311547778013e+01 0 0 0
227 1 1.6510392139995671e+00 7.3616884522220598e+00 2.4493636166889498e+01 0 0 0
228 1 4.5063638331105116e+00 7.3616884522220580e+00 2.4493636166889505e+01 0 0 0
229 1 2.2337690444405300e-01 8.7893507617770794e+00 2.3065973857333454e+01 0 0 0
230 1 1.6510392139995893e+00 1.0217013071333609e+01 2.4493636166889509e+01 0 0 0
231 1 3.0787015235554036e+00 8.7893507617770794e+00 2.3065973857333468e+01 0 0 0
232 1 4.5063638331104627e+00 1.0217013071333611e+01 2.4493636166889502e+01 0 0 0
233 1 5.9340261426667587e+00 8.7893507617770172e+00 2.3065973857333439e+01 0 0 0
234 1 2.2337690444406330e-01 1.1644675380888900e+01 2.3065973857333439e+01 0 0 0
235 1 1.6510392139995731e+00 1.3072337690444252e+01 2.4493636166889509e+01 0 0 0
236 1 3.0787015235553987e+00 1.1644675380888915e+01 2.3065973857333450e+01 0 0 0
237 1 4.5063638331105089e+00 1.3072337690444241e+01 2.4493636166889516e+01 0 0 0
238 1 5.9340261426667453e+00 1.1644675380888957e+01 2.3065973857333439e+01 0 0 0
239 1 1.6510392139995800e+00 7.3616884522220642e+00 2.7348960786000543e+01 0 0 0
240 1 4.5063638331104903e+00 7.3616884522220642e+00 2.7348960786000500e+01 0 0 0
250 1 5.9340261426667800e+00 1.1644675380888984e+01 2.5921298476444271e+01 0 0 0
242 1 1.6510392139995707e+00 1.0217013071333636e+01 2.7348960786000511e+01 0 0 0
243 1 3.0787015235553987e+00 8.7893507617770759e+00 2.5921298476444289e+01 0 0 0
244 1 4.5063638331104663e+00 1.0217013071333636e+01 2.7348960786000557e+01 0 0 0
245 1 5.9340261426667809e+00 8.7893507617770048e+00 2.5921298476444271e+01 0 0 0
246 1 2.2337690444404804e-01 1.1644675380888918e+01 2.5921298476444292e+01 0 0 0
247 1 1.6510392139995844e+00 1.3072337690444245e+01 2.7348960786000553e+01 0 0 0
248 1 3.0787015235553978e+00 1.1644675380888925e+01 2.5921298476444306e+01 0 0 0
249 1 4.5063638331104716e+00 1.3072337690444241e+01 2.7348960786000500e+01 0 0 0
355 1 2.2337690444406549e-01 1.4499999999999625e+01 2.3065973857333450e+01 0 0 0
357 1 3.0787015235553903e+00 1.4499999999999627e+01 2.3065973857333461e+01 0 0 0
359 1 5.9340261426668066e+00 1.4499999999999593e+01 2.3065973857333443e+01 0 0 0
370 1 3.0787015235554160e+00 1.4499999999999602e+01 2.5921298476444303e+01 0 0 0
372 1 5.9340261426667906e+00 1.4499999999999563e+01 2.5921298476444285e+01 0 0 0
276 1 5.9340261426667871e+00 2.0210649238223493e+01 3.0787015235553432e+00 0 0 0
252 1 1.6510392139995915e+00 1.5927662309556618e+01 1.6510392139995977e+00 0 0 0
275 1 3.0787015235554080e+00 2.0210649238223521e+01 3.0787015235552890e+00 0 0 0
254 1 4.5063638331104245e+00 1.5927662309556569e+01 1.6510392139996135e+00 0 0 0
281 1 3.0787015235554072e+00 1.7355324619110728e+01 5.9340261426668111e+00 0 0 0
285 1 5.9340261426667924e+00 2.0210649238223592e+01 5.9340261426668350e+00 0 0 0
257 1 1.6510392139995982e+00 1.8782986928665952e+01 1.6510392139996082e+00 0 0 0
258 1 3.0787015235553987e+00 1.7355324619110668e+01 2.2337690444409911e-01 0 0 0
259 1 4.5063638331104920e+00 1.8782986928665938e+01 1.6510392139995929e+00 0 0 0
260 1 5.9340261426668093e+00 1.7355324619110796e+01 2.2337690444410041e-01 0 0 0
284 1 3.0787015235554427e+00 2.0210649238223567e+01 5.9340261426668333e+00 0 0 0
262 1 3.0787015235553943e+00 2.0210649238223532e+01 2.2337690444411340e-01 0 0 0
263 1 5.9340261426668057e+00 2.0210649238223489e+01 2.2337690444410699e-01 0 0 0
282 1 5.9340261426667746e+00 1.7355324619110640e+01 5.9340261426668244e+00 0 0 0
265 1 1.6510392139995862e+00 1.5927662309556569e+01 4.5063638331105533e+00 0 0 0
273 1 5.9340261426667755e+00 1.7355324619110757e+01 3.0787015235553223e+00 0 0 0
267 1 4.5063638331104725e+00 1.5927662309556613e+01 4.5063638331105658e+00 0 0 0
272 1 4.5063638331104761e+00 1.8782986928665924e+01 4.5063638331105524e+00 0 0 0
269 1 2.2337690444405167e-01 1.7355324619110668e+01 3.0787015235553064e+00 0 0 0
270 1 1.6510392139995658e+00 1.8782986928665881e+01 4.5063638331105791e+00 0 0 0
271 1 3.0787015235554089e+00 1.7355324619110661e+01 3.0787015235553064e+00 0 0 0
381 1 1.6510392139996086e+00 2.1638311547777505e+01 1.6510392139995858e+00 0 0 0
382 1 4.5063638331104201e+00 2.1638311547777494e+01 1.6510392139995957e+00 0 0 0
393 1 1.6510392139995946e+00 2.1638311547777519e+01 4.5063638331105658e+00 0 0 0
394 1 4.5063638331104681e+00 2.1638311547777473e+01 4.5063638331106004e+00 0 0 0
286 1 1.6510392139995747e+00 1.5927662309556545e+01 7.3616884522219603e+00 0 0 0
287 1 4.5063638331104832e+00 1.5927662309556599e+01 7.3616884522219612e+00 0 0 0
288 1 1.6510392139995771e+00 1.8782986928665931e+01 7.3616884522219443e+00 0 0 0
289 1 4.5063638331104441e+00 1.8782986928665942e+01 7.3616884522219523e+00 0 0 0
411 1 1.6510392139995873e+00 2.1638311547777505e+01 7.3616884522219479e+00 0 0 0
412 1 4.5063638331104796e+00 2.1638311547777469e+01 7.3616884522219150e+00 0 0 0
430 1 4.5063638331104157e+00 2.1638311547777533e+01 1.3072337690444479e+01 0 0 0
429 1 1.6510392139996248e+00 2.1638311547777530e+01 1.3072337690444435e+01 0 0 0
418 1 4.5063638331104139e+00 2.1638311547777533e+01 1.0217013071333936e+01 0 0 0
417 1 1.6510392139996053e+00 2.1638311547777494e+01 1.0217013071333962e+01 0 0 0
310 1 3.0787015235553867e+00 1.7355324619110679e+01 1.1644675380888598e+01 0 0 0
291 1 1.6510392139995975e+00 1.5927662309556634e+01 1.0217013071333913e+01 0 0 0
309 1 1.6510392139996206e+00 1.8782986928665942e+01 1.3072337690444501e+01 0 0 0
293 1 4.5063638331104645e+00 1.5927662309556585e+01 1.0217013071333882e+01 0 0 0
311 1 4.5063638331104565e+00 1.8782986928665942e+01 1.3072337690444446e+01 0 0 0
315 1 5.9340261426668048e+00 2.0210649238223482e+01 1.1644675380888604e+01 0 0 0
296 1 1.6510392139996293e+00 1.8782986928665942e+01 1.0217013071333913e+01 0 0 0
297 1 3.0787015235554169e+00 1.7355324619110668e+01 8.7893507617770599e+00 0 0 0
298 1 4.5063638331104379e+00 1.8782986928665938e+01 1.0217013071333936e+01 0 0 0
299 1 5.9340261426668217e+00 1.7355324619110668e+01 8.7893507617770226e+00 0 0 0
314 1 3.0787015235553938e+00 2.0210649238223514e+01 1.1644675380888593e+01 0 0 0
301 1 3.0787015235554120e+00 2.0210649238223500e+01 8.7893507617770243e+00 0 0 0
302 1 5.9340261426668253e+00 2.0210649238223510e+01 8.7893507617769675e+00 0 0 0
312 1 5.9340261426668466e+00 1.7355324619110743e+01 1.1644675380888604e+01 0 0 0
304 1 1.6510392139995964e+00 1.5927662309556618e+01 1.3072337690444444e+01 0 0 0
306 1 4.5063638331104281e+00 1.5927662309556561e+01 1.3072337690444476e+01 0 0 0
323 1 3.0787015235553903e+00 1.7355324619110664e+01 1.4499999999999391e+01 0 0 0
325 1 5.9340261426668173e+00 1.7355324619110746e+01 1.4499999999999394e+01 0 0 0
327 1 3.0787015235553996e+00 2.0210649238223503e+01 1.4499999999999382e+01 0 0 0
328 1 5.9340261426667862e+00 2.0210649238223503e+01 1.4499999999999446e+01 0 0 0
350 1 5.9340261426668093e+00 2.0210649238223514e+01 2.0210649238222963e+01 0 0 0
317 1 1.6510392139996055e+00 1.5927662309556558e+01 1.5927662309556524e+01 0 0 0
341 1 5.9340261426668208e+00 2.0210649238223510e+01 1.7355324619111158e+01 0 0 0
319 1 4.5063638331104503e+00 1.5927662309556599e+01 1.5927662309556572e+01 0 0 0
340 1 3.0787015235554147e+00 2.0210649238223500e+01 1.7355324619111126e+01 0 0 0
349 1 3.0787015235554231e+00 2.0210649238223571e+01 2.0210649238222999e+01 0 0 0
322 1 1.6510392139995822e+00 1.8782986928665949e+01 1.5927662309556588e+01 0 0 0
454 1 4.5063638331104752e+00 2.1638311547777477e+01 1.8782986928665764e+01 0 0 0
324 1 4.5063638331104769e+00 1.8782986928665942e+01 1.5927662309556572e+01 0 0 0
453 1 1.6510392139995951e+00 2.1638311547777526e+01 1.8782986928665746e+01 0 0 0
347 1 5.9340261426667480e+00 1.7355324619110672e+01 2.0210649238222999e+01 0 0 0
442 1 4.5063638331104725e+00 2.1638311547777530e+01 1.5927662309556569e+01 0 0 0
441 1 1.6510392139995962e+00 2.1638311547777526e+01 1.5927662309556572e+01 0 0 0
346 1 3.0787015235554023e+00 1.7355324619110732e+01 2.0210649238222999e+01 0 0 0
330 1 1.6510392139995933e+00 1.5927662309556553e+01 1.8782986928665757e+01 0 0 0
338 1 5.9340261426667835e+00 1.7355324619110668e+01 1.7355324619111126e+01 0 0 0
332 1 4.5063638331104769e+00 1.5927662309556613e+01 1.8782986928665764e+01 0 0 0
337 1 4.5063638331104663e+00 1.8782986928665931e+01 1.8782986928665757e+01 0 0 0
336 1 3.0787015235554107e+00 1.7355324619110736e+01 1.7355324619111158e+01 0 0 0
335 1 1.6510392139995826e+00 1.8782986928665871e+01 1.8782986928665753e+01 0 0 0
351 1 1.6510392139995971e+00 1.5927662309556558e+01 2.1638311547778024e+01 0 0 0
352 1 4.5063638331104858e+00 1.5927662309556613e+01 2.1638311547778017e+01 0 0 0
353 1 1.6510392139995616e+00 1.8782986928665864e+01 2.1638311547778006e+01 0 0 0
354 1 4.5063638331104743e+00 1.8782986928665867e+01 2.1638311547778017e+01 0 0 0
375 1 3.0787015235553925e+00 1.7355324619110736e+01 2.5921298476444303e+01 0 0 0
356 1 1.6510392139995917e+00 1.5927662309556553e+01 2.4493636166889502e+01 0 0 0
374 1 1.6510392139995813e+00 1.8782986928665895e+01 2.7348960786000511e+01 0 0 0
358 1 4.5063638331104716e+00 1.5927662309556553e+01 2.4493636166889502e+01 0 0 0
376 1 4.5063638331104965e+00 1.8782986928665892e+01 2.7348960786000553e+01 0 0 0
380 1 5.9340261426668137e+00 2.0210649238223503e+01 2.5921298476444331e+01 0 0 0
361 1 1.6510392139995844e+00 1.8782986928665860e+01 2.4493636166889512e+01 0 0 0
362 1 3.0787015235554009e+00 1.7355324619110732e+01 2.3065973857333450e+01 0 0 0
363 1 4.5063638331104476e+00 1.8782986928665895e+01 2.4493636166889502e+01 0 0 0
364 1 5.9340261426667515e+00 1.7355324619110728e+01 2.3065973857333439e+01 0 0 0
379 1 3.0787015235554009e+00 2.0210649238223585e+01 2.5921298476444289e+01 0 0 0
366 1 3.0787015235554214e+00 2.0210649238223574e+01 2.3065973857333464e+01 0 0 0
367 1 5.9340261426668013e+00 2.0210649238223581e+01 2.3065973857333432e+01 0 0 0
377 1 5.9340261426668102e+00 1.7355324619110757e+01 2.5921298476444285e+01 0 0 0
369 1 1.6510392139995953e+00 1.5927662309556570e+01 2.7348960786000564e+01 0 0 0
371 1 4.5063638331104325e+00 1.5927662309556586e+01 2.7348960786000525e+01 0 0 0
471 1 1.6510392139995989e+00 2.1638311547777466e+01 2.1638311547778024e+01 0 0 0
472 1 4.5063638331104769e+00 2.1638311547777477e+01 2.1638311547778024e+01 0 0 0
477 1 1.6510392139996204e+00 2.1638311547777469e+01 2.4493636166889505e+01 0 0 0
478 1 4.5063638331104432e+00 2.1638311547777512e+01 2.4493636166889502e+01 0 0 0
489 1 1.6510392139996231e+00 2.1638311547777505e+01 2.7348960786000557e+01 0 0 0
490 1 4.5063638331104308e+00 2.1638311547777498e+01 2.7348960786000500e+01 0 0 0
405 1 2.2337690444405708e-01 2.3065973857333752e+01 5.9340261426668084e+00 0 0 0
404 1 5.9340261426668057e+00 2.5921298476444253e+01 3.0787015235553357e+00 0 0 0
410 1 5.9340261426667738e+00 2.5921298476444257e+01 5.9340261426668084e+00 0 0 0
384 1 1.6510392139995826e+00 2.4493636166889409e+01 1.6510392139995922e+00 0 0 0
385 1 3.0787015235553974e+00 2.3065973857333638e+01 2.2337690444410882e-01 0 0 0
386 1 4.5063638331105018e+00 2.4493636166889353e+01 1.6510392139995906e+00 0 0 0
387 1 5.9340261426668128e+00 2.3065973857333770e+01 2.2337690444411445e-01 0 0 0
409 1 3.0787015235554325e+00 2.5921298476444253e+01 5.9340261426668226e+00 0 0 0
389 1 1.6510392139995935e+00 2.7348960786000582e+01 1.6510392139995738e+00 0 0 0
390 1 3.0787015235553756e+00 2.5921298476444314e+01 2.2337690444412722e-01 0 0 0
391 1 4.5063638331104681e+00 2.7348960786000649e+01 1.6510392139995758e+00 0 0 0
392 1 5.9340261426668057e+00 2.5921298476444289e+01 2.2337690444410854e-01 0 0 0
403 1 4.5063638331104698e+00 2.7348960786000635e+01 4.5063638331105729e+00 0 0 0
402 1 3.0787015235553867e+00 2.5921298476444310e+01 3.0787015235553024e+00 0 0 0
407 1 5.9340261426667542e+00 2.3065973857333663e+01 5.9340261426668146e+00 0 0 0
396 1 1.6510392139995771e+00 2.4493636166889338e+01 4.5063638331106244e+00 0 0 0
397 1 3.0787015235553969e+00 2.3065973857333635e+01 3.0787015235553175e+00 0 0 0
398 1 4.5063638331104823e+00 2.4493636166889392e+01 4.5063638331106022e+00 0 0 0
399 1 5.9340261426668208e+00 2.3065973857333759e+01 3.0787015235553024e+00 0 0 0
406 1 3.0787015235553854e+00 2.3065973857333748e+01 5.9340261426668182e+00 0 0 0
401 1 1.6510392139995800e+00 2.7348960786000639e+01 4.5063638331105764e+00 0 0 0
18 1 5.9340261426668173e+00 2.8776623095555927e+01 3.0787015235553259e+00 0 -1 0
28 1 3.0787015235553854e+00 2.8776623095555941e+01 5.9340261426668235e+00 0 -1 0
29 1 5.9340261426667960e+00 2.8776623095555934e+01 5.9340261426668377e+00 0 -1 0
413 1 1.6510392139995897e+00 2.4493636166889338e+01 7.3616884522219062e+00 0 0 0
414 1 4.5063638331104379e+00 2.4493636166889395e+01 7.3616884522219301e+00 0 0 0
415 1 1.6510392139995984e+00 2.7348960786000635e+01 7.3616884522219506e+00 0 0 0
416 1 4.5063638331104459e+00 2.7348960786000632e+01 7.3616884522219568e+00 0 0 0
437 1 1.6510392139996055e+00 2.7348960786000632e+01 1.3072337690444479e+01 0 0 0
435 1 5.9340261426668182e+00 2.3065973857333695e+01 1.1644675380888605e+01 0 0 0
44 1 5.9340261426668208e+00 2.8776623095555930e+01 8.7893507617769675e+00 0 -1 0
438 1 3.0787015235554023e+00 2.5921298476444314e+01 1.1644675380888588e+01 0 0 0
432 1 1.6510392139996020e+00 2.4493636166889360e+01 1.3072337690444478e+01 0 0 0
428 1 5.9340261426668306e+00 2.5921298476444264e+01 8.7893507617769906e+00 0 0 0
434 1 4.5063638331104539e+00 2.4493636166889363e+01 1.3072337690444449e+01 0 0 0
433 1 3.0787015235554054e+00 2.3065973857333638e+01 1.1644675380888604e+01 0 0 0