LAMMPS (29 Sep 2021 - Update 1)
KOKKOS mode is enabled (../kokkos.cpp:97)
  will use up to 2 GPU(s) per node
  using 1 OpenMP thread(s) per MPI task
Reading data file ...
  orthogonal box = (0.0000000 0.0000000 0.0000000) to (4143.0751 57.106480 57.106480)
  64 by 1 by 1 MPI processor grid
  reading atoms ...
  360800 atoms
  read_data CPU = 4.717 seconds
WARNING: Using 'neigh_modify every 1 delay 0 check yes' setting during minimization (../min.cpp:188)
Neighbor list info ...
  update every 1 steps, delay 0 steps, check yes
  max neighbors/atom: 2000, page size: 100000
  master list distance cutoff = 7.6
  ghost atom cutoff = 7.6
  binsize = 7.6, bins = 546 8 8
  1 neighbor lists, perpetual/occasional/extra = 1 0 0
  (1) pair eam/alloy/kk, perpetual
      attributes: full, newton off, kokkos_device
      pair build: full/bin/kk/device
      stencil: full/bin/3d
      bin: kk/device
Setting up cg/kk style minimization ...
  Unit style    : metal
  Current step  : 0
WARNING: Energy due to 1 extra global DOFs will be included in minimizer energies
WARNING: Fixes cannot yet send exchange data in Kokkos communication, switching to classic exchange/border communication (../comm_kokkos.cpp:581)
Per MPI rank memory allocation (min/avg/max) = 2.376 | 4.616 | 9.668 Mbytes
Step Temp E_pair E_mol TotEng Press Volume 
       0            0   -1486645.8            0   -1486645.8   -52.715618     13511190 
       5            0   -1428999.7            0   -1428999.7   -4241.4286     13510011 
Loop time of 1.35972 on 64 procs for 5 steps with 360800 atoms

88.4% CPU use with 64 MPI tasks x 1 OpenMP threads

Minimization stats:
  Stopping criterion = linesearch alpha is zero
  Energy initial, next-to-last, final = 
     -1486645.77951318   -1486647.6284912  -1428999.72162713
  Force two-norm initial, final = 1333.6748 107297.97
  Force max component initial, final = 1333.6559 107297.94
  Final line search alpha, max atom move = 3.2660501e-13 3.5044044e-08
  Iterations, force evaluations = 5 52

MPI task timing breakdown:
Section |  min time  |  avg time  |  max time  |%varavg| %total
---------------------------------------------------------------
Pair    | 0.16778    | 0.2872     | 0.53042    |  26.3 | 21.12
Neigh   | 0.011003   | 0.015685   | 0.02946    |   2.5 |  1.15
Comm    | 0.0024619  | 0.097879   | 0.30511    |  41.8 |  7.20
Output  | 0          | 0          | 0          |   0.0 |  0.00
Modify  | 0          | 0          | 0          |   0.0 |  0.00
Other   |            | 0.959      |            |       | 70.53

Nlocal:        5637.50 ave       18400 max           0 min
Histogram: 44 0 0 0 0 0 0 0 1 19
Nghost:        5643.81 ave       18428 max           0 min
Histogram: 43 1 0 0 0 0 0 1 1 18
Neighs:         0.00000 ave           0 max           0 min
Histogram: 64 0 0 0 0 0 0 0 0 0
FullNghs:      775772.0 ave  3.0912e+06 max           0 min
Histogram: 44 0 0 0 0 0 10 0 1 9

Total # of neighbors = 49649400
Ave neighs/atom = 137.60920
Neighbor list builds = 2
Dangerous builds = 0
Initial Length, L0: 4142.95461920741
119200 atoms in group dcr
800 atoms in group source
800 atoms in group detector
400 atoms in group edge
400 atoms in group edge_buf
120000 atoms in group buffer
Setting up Verlet run ...
  Unit style    : metal
  Current step  : 0
  Time step     : 0.001
Per MPI rank memory allocation (min/avg/max) = 3.795 | 6.425 | 12.35 Mbytes
Step v_strain Temp v_p2 v_p3 v_p4 KinEng PotEng Press 
       0            0            0 -0.0056228799  0.004348436  0.004348436            0   -1486647.6    -10.24664 
     500        0.005  0.025832326   0.36793732   0.22388403   0.22388403    1.2047404   -1486571.9   -2719.0179 
Loop time of 15.7126 on 64 procs for 500 steps with 360800 atoms

Performance: 2.749 ns/day, 8.729 hours/ns, 31.822 timesteps/s
87.4% CPU use with 64 MPI tasks x 1 OpenMP threads

MPI task timing breakdown:
Section |  min time  |  avg time  |  max time  |%varavg| %total
---------------------------------------------------------------
Pair    | 1.6476     | 3.1587     | 6.4382     | 106.5 | 20.10
Neigh   | 0.039772   | 0.075126   | 0.091145   |   5.2 |  0.48
Comm    | 0.23561    | 1.5897     | 4.6745     | 148.5 | 10.12
Output  | 1.3815     | 1.4967     | 1.624      |   8.4 |  9.53
Modify  | 2.2474     | 8.3364     | 11.457     | 137.9 | 53.06
Other   |            | 1.056      |            |       |  6.72

Nlocal:        5637.50 ave       18400 max           0 min
Histogram: 44 0 0 0 0 0 0 0 1 19
Nghost:        5622.69 ave       18428 max           0 min
Histogram: 43 1 0 0 0 0 0 1 1 18
Neighs:         0.00000 ave           0 max           0 min
Histogram: 64 0 0 0 0 0 0 0 0 0
FullNghs:      944975.0 ave  3.0912e+06 max           0 min
Histogram: 44 0 0 0 0 0 0 0 1 19

Total # of neighbors = 60478400
Ave neighs/atom = 167.62306
Neighbor list builds = 13
Dangerous builds = 0
All done
Total wall time: 0:00:27
