LAMMPS (29 Sep 2021 - Update 1)
KOKKOS mode is enabled (../kokkos.cpp:97)
  will use up to 4 GPU(s) per node
  using 1 OpenMP thread(s) per MPI task
package kokkos
#################################
#two psrts have to be corrected
#Vacancy >> type : Fe Fe Fe Fe Fe Fe Fe Fe Fe
#Cu      >> type : Fe Fe Fe Fe Fe Fe Fe Fe Fe Cu
#################################

####
#variable nvt_temp      equal 0.1                     # Temperature
variable npt_temp      equal 0.1
####
#系の基本状態を定める。詳細はLAMMPSのサイトを参照

variable atmos        equal 1.01325                    # Atomic Mass

units       metal
atom_style  atomic
#xyz方向すべて周期的境界条件にしている。x方向のみ真空領域を作り非周期性を出している
boundary p p p

#計算量に問題がないのなら0.001[ps]にするのが望ましい。
#timestep .0001
timestep    0.001
#timestep    0.01
#timestep 0.1
read_data   ./Fe.lat
Reading data file ...
  orthogonal box = (0.0000000 0.0000000 0.0000000) to (4143.0751 57.106480 57.106480)
  128 by 1 by 1 MPI processor grid
  reading atoms ...
  360800 atoms
  read_data CPU = 7.689 seconds

#ポテンシャルファイルからポテンシャルを与えている。
pair_style  eam/alloy
pair_coeff  * * ./FeCuNi.eam.alloy Fe Fe Fe Fe Fe Fe Fe Fe Fe
#pair_coeff  * * ./new_potential/FeCuNi.eam.alloy Fe Fe Fe Fe Cu
#mass        *4 ${mass}
#pair_style  aenet
#pair_coeff  * * v03 Fe 10sw-10sw.nn Fe Fe Fe Fe Fe
#pair_coeff  * * ./new_potential/FeCuNi.eam.alloy Fe Fe Fe Fe Cu
#mass        *4 ${mass}
mass        * 55.845
#mass        5 58.454 correct value!!!

#原子グループに名前を与えている。
group source type 2
800 atoms in group source
group detector type 3
800 atoms in group detector
group edge type 5
400 atoms in group edge
group edge_buf type 7
400 atoms in group edge_buf
group buffer type 7 8 9
120000 atoms in group buffer
#group longage type 9

#欲しい情報に記号を割り当てファイル出力させている。
variable s equal xcm(source,x)
variable d equal xcm(detector,x)
variable g equal xcm(edge,x)
variable t equal temp
variable p equal press
variable v equal vol
variable e equal etotal
variable i equal time
variable FIG string iranai
variable f equal fcm(detector,x)
variable l equal vcm(detector,x)

##############################################
variable rescaleSteps equal 0
variable relaxationSteps equal 0
variable initialSteps equal ${rescaleSteps}+${relaxationSteps}
variable initialSteps equal 0+${relaxationSteps}
variable initialSteps equal 0+0
##############################################

dump fuck all atom 1 strain.dump
dump_modify fuck scale no

thermo 1
thermo_style custom time step lx pxx pxy pxz ly lz pyy pzz pyz

#fix extra all print 1 "$i $s $d $g $l $f $t $v $e $p" file outp.txt

minimize 1.0e-30 1.0e-30 100000 100000
WARNING: Using 'neigh_modify every 1 delay 0 check yes' setting during minimization (../min.cpp:188)
Neighbor list info ...
  update every 1 steps, delay 0 steps, check yes
  max neighbors/atom: 2000, page size: 100000
  master list distance cutoff = 7.6
  ghost atom cutoff = 7.6
  binsize = 7.6, bins = 546 8 8
  1 neighbor lists, perpetual/occasional/extra = 1 0 0
  (1) pair eam/alloy/kk, perpetual
      attributes: full, newton off, kokkos_device
      pair build: full/bin/kk/device
      stencil: full/bin/3d
      bin: kk/device
WARNING: Fixes cannot yet send exchange data in Kokkos communication, switching to classic exchange/border communication (../comm_kokkos.cpp:581)
Per MPI rank memory allocation (min/avg/max) = 2.254 | 3.806 | 7.377 Mbytes
Time Step Lx Pxx Pxy Pxz Ly Lz Pyy Pzz Pyz 
           0        0    4143.0751    12.766153 -4.3012385e-14 -2.567273e-14     57.10648     57.10648   -85.456504   -85.456504 -9.7591826e-15 
       0.001        1    4143.0751    4.9624194 -3.8884154e-14 -5.0996829e-15     57.10648     57.10648   -95.172201   -95.172201 -5.0489122e-13 
       0.002        2    4143.0751    2.7193318 -5.4700325e-14 -2.1308053e-14     57.10648     57.10648   -97.006352   -97.006352 3.8692566e-13 
       0.003        3    4143.0751    3.2072967 -6.9819157e-14 -9.272576e-14     57.10648     57.10648   -96.140203   -96.140203 -1.1382738e-13 
       0.004        4    4143.0751    2.6400573 1.0420896e-13 8.4785655e-14     57.10648     57.10648   -96.501525   -96.501525 4.2406762e-13 
       0.005        5    4143.0751    1.8692697 8.9063026e-14 5.5349981e-14     57.10648     57.10648   -97.038029   -97.038029 -7.5976539e-14 
       0.006        6    4143.0751    1.5880349 7.0293952e-14 -6.684835e-14     57.10648     57.10648   -97.222835   -97.222835 -4.1542883e-13 
       0.007        7    4143.0751    1.4304795 -1.1450823e-13 -4.8040958e-14     57.10648     57.10648   -97.302236   -97.302236 6.0302446e-14 
       0.008        8    4143.0751    1.3102667 1.0746099e-13 -4.4722541e-15     57.10648     57.10648   -97.373091   -97.373091 1.4099234e-14 
       0.009        9    4143.0751    1.1651506 -9.4991021e-14 -7.4129891e-14     57.10648     57.10648   -97.467596   -97.467596 8.6064573e-14 
        0.01       10    4143.0751    1.0801049 -7.8323767e-14 -1.174287e-13     57.10648     57.10648   -97.519517   -97.519517 7.5278942e-14 
       0.011       11    4143.0751    1.0182961 4.1700312e-14 -3.4430494e-14     57.10648     57.10648    -97.55383    -97.55383 1.0737146e-13 
       0.012       12    4143.0751   0.96492776 2.2799908e-13 1.3452101e-14     57.10648     57.10648   -97.585187   -97.585187 1.8643964e-14 
       0.013       13    4143.0751   0.90630688 1.7785725e-13 6.8784115e-14     57.10648     57.10648   -97.622306   -97.622306 -3.8000442e-14 
       0.014       14    4143.0751   0.86458184 -8.051861e-14 -1.2500059e-13     57.10648     57.10648   -97.647661   -97.647661 -4.5703384e-15 
       0.015       15    4143.0751   0.83242506 7.9743545e-14 1.6097202e-14     57.10648     57.10648   -97.665622   -97.665622 -2.0824627e-14 
       0.016       16    4143.0751   0.80214445 -5.5661147e-14 -8.4162985e-14     57.10648     57.10648   -97.683642   -97.683642 6.9176086e-14 
       0.017       17    4143.0751   0.77060995 -6.097729e-14 9.2912238e-14     57.10648     57.10648   -97.703317   -97.703317 2.1983216e-14 
       0.018       18    4143.0751   0.74604836 -1.154134e-13 -3.2626404e-14     57.10648     57.10648   -97.718075   -97.718075 1.7910742e-14 
       0.019       19    4143.0751    0.7261273 1.0573288e-13 1.2069461e-13     57.10648     57.10648   -97.729394   -97.729394 6.2420633e-14 
        0.02       20    4143.0751   0.70656472 1.0708806e-13 1.9507493e-13     57.10648     57.10648   -97.741056   -97.741056 -1.6296407e-13 
       0.021       21    4143.0751   0.68688549 8.0081637e-14 1.4993331e-12     57.10648     57.10648   -97.753242   -97.753242 -3.3547416e-13 
       0.022       22    4143.0751   0.67069044 1.8815183e-12 1.4054411e-11     57.10648     57.10648   -97.762917   -97.762917 -3.3237596e-12 
       0.023       23    4143.0751   0.65753672 1.2510759e-11 9.0968668e-11     57.10648     57.10648   -97.770453   -97.770453 -2.1072864e-11 
       0.024       24    4143.0751   0.64676263 4.2047964e-11 3.039078e-10     57.10648     57.10648   -97.776858   -97.776858 -6.7661582e-11 
       0.025       25    4143.0751   0.63571486 1.355138e-11 1.0617204e-10     57.10648     57.10648   -97.783609   -97.783609 -2.0972153e-11 
       0.026       26    4143.0751   0.62405362 -6.3502845e-13 2.231165e-11     57.10648     57.10648   -97.790727   -97.790727 -2.4006268e-12 
       0.027       27    4143.0751   0.61326696 -2.1191498e-11 1.4418944e-11     57.10648     57.10648   -97.797027   -97.797027 -1.6031376e-13 
       0.028       28    4143.0751   0.60490757 -8.5907706e-11 2.7841677e-11     57.10648     57.10648   -97.801889   -97.801889 -2.0774797e-13 
       0.029       29    4143.0751   0.59724561 -6.9086899e-11 3.0060724e-11     57.10648     57.10648   -97.806489   -97.806489 -2.2956499e-12 
        0.03       30    4143.0751   0.58818871 -1.3485447e-11 1.4843813e-11     57.10648     57.10648   -97.812036   -97.812036 -2.3333207e-12 
       0.031       31    4143.0751    0.5797815 -2.4090468e-11 1.5655858e-11     57.10648     57.10648    -97.81707    -97.81707 -3.3135804e-12 
       0.032       32    4143.0751    0.5730666 -6.8975819e-11 1.7501306e-11     57.10648     57.10648   -97.820967   -97.820967 -4.2557071e-12 
       0.033       33    4143.0751   0.56736936 -4.1169018e-11 7.6193803e-12     57.10648     57.10648   -97.824312   -97.824312 -3.9151015e-13 
       0.034       34    4143.0751   0.56000548 -1.6682282e-11 3.3621225e-12     57.10648     57.10648    -97.82877    -97.82877 1.4481908e-12 
       0.035       35    4143.0751   0.55330206 -3.9993856e-11 1.0116608e-12     57.10648     57.10648   -97.832846   -97.832846 4.2614427e-12 
       0.036       36    4143.0751   0.54799896 -6.5901231e-11 -4.0637216e-12     57.10648     57.10648   -97.835985   -97.835985 8.1137807e-12 
       0.037       37    4143.0751   0.54283424 -1.9666202e-11 4.2486371e-13     57.10648     57.10648   -97.838992   -97.838992 3.5248141e-12 
       0.038       38    4143.0751   0.53718057 -2.0580319e-11 1.5730431e-11     57.10648     57.10648   -97.842345   -97.842345 2.3090757e-12 
       0.039       39    4143.0751   0.53178779 -5.4164643e-11 4.3050016e-11     57.10648     57.10648   -97.845624   -97.845624 1.2086107e-12 
        0.04       40    4143.0751    0.5273244 -3.6834609e-11 1.9081103e-11     57.10648     57.10648   -97.848321   -97.848321 -8.2633033e-13 
       0.041       41    4143.0751   0.52240672 -1.4016797e-11 -1.4728153e-12     57.10648     57.10648   -97.851218   -97.851218 -7.7742564e-13 
       0.042       42    4143.0751   0.51800412 -2.1770095e-11 5.0634976e-12     57.10648     57.10648   -97.853793   -97.853793 -1.8720148e-13 
       0.043       43    4143.0751   0.51401305 -2.7781871e-11 1.4173327e-11     57.10648     57.10648   -97.856181   -97.856181 -3.0282183e-14 
       0.044       44    4143.0751   0.50962364 -1.0201332e-11 5.3341987e-12     57.10648     57.10648   -97.858845   -97.858845 2.4890568e-13 
       0.045       45    4143.0751   0.50536925 -8.474911e-12 9.0140616e-12     57.10648     57.10648   -97.861397   -97.861397 2.3984689e-12 
       0.046       46    4143.0751   0.50179997 -9.8261829e-12 1.5117352e-11     57.10648     57.10648    -97.86349    -97.86349 4.7873469e-12 
       0.047       47    4143.0751   0.49841191 -4.7992335e-12 5.5566644e-12     57.10648     57.10648    -97.86548    -97.86548 1.6557702e-12 
       0.048       48    4143.0751   0.49441417 -5.710491e-12 3.3345004e-12     57.10648     57.10648   -97.867883   -97.867883 2.7231969e-13 
       0.049       49    4143.0751   0.49089401 -1.0210021e-11 7.1021386e-12     57.10648     57.10648   -97.870015   -97.870015 -4.1434662e-14 
        0.05       50    4143.0751   0.48775644 -6.3467354e-12 3.2958932e-12     57.10648     57.10648   -97.871886   -97.871886 -1.6299476e-13 
       0.051       51    4143.0751    0.4844232 -2.1257915e-12 7.5620723e-13     57.10648     57.10648    -97.87384    -97.87384 -1.7401688e-13 
       0.052       52    4143.0751   0.48129687 -3.3660648e-12 5.1830447e-12     57.10648     57.10648    -97.87569    -97.87569 -5.942687e-13 
       0.053       53    4143.0751   0.47831717 -3.4535889e-12 4.9172892e-12     57.10648     57.10648   -97.877487   -97.877487 -8.2960624e-13 
       0.054       54    4143.0751   0.47523414 -1.7067531e-12 4.1442577e-13     57.10648     57.10648   -97.879349   -97.879349 -3.5389058e-13 
       0.055       55    4143.0751   0.47224529 -2.4300374e-12 3.2289298e-13     57.10648     57.10648    -97.88112    -97.88112 5.0662703e-13 
       0.056       56    4143.0751   0.46973479 -3.0649542e-12 5.2691793e-13     57.10648     57.10648   -97.882593   -97.882593 1.2335884e-12 
       0.057       57    4143.0751   0.46704302 -2.5898922e-12 -4.8953143e-14     57.10648     57.10648   -97.884193   -97.884193 1.2632036e-12 
       0.058       58    4143.0751   0.46411494 -3.1890693e-12 1.7504063e-12     57.10648     57.10648   -97.885961   -97.885961 1.9196528e-12 
       0.059       59    4143.0751   0.46163619 -3.5004958e-12 3.6607793e-12     57.10648     57.10648    -97.88745    -97.88745 3.0645414e-12 
        0.06       60    4143.0751   0.45916722 -2.2974854e-12 1.4954068e-12     57.10648     57.10648    -97.88891    -97.88891 2.2747692e-12 
       0.061       61    4143.0751   0.45669545 -3.4755014e-12 1.0242176e-12     57.10648     57.10648   -97.890363   -97.890363 3.3084649e-12 
       0.062       62    4143.0751    0.4543477 -6.4850196e-12 2.3317649e-12     57.10648     57.10648   -97.891767   -97.891767 6.1564713e-12 
       0.063       63    4143.0751   0.45204106 -3.9775936e-12 8.8134935e-13     57.10648     57.10648    -97.89316    -97.89316 4.3327312e-12 
       0.064       64    4143.0751   0.44964404 -3.2493849e-12 -6.7893862e-13     57.10648     57.10648   -97.894595   -97.894595 5.0553675e-12 
       0.065       65    4143.0751   0.44746982 -4.4679207e-12 -2.2048224e-12     57.10648     57.10648   -97.895875   -97.895875 9.4830661e-12 
       0.066       66    4143.0751   0.44549789 -3.4401807e-12 -2.0263073e-12     57.10648     57.10648   -97.897039   -97.897039 7.6073693e-12 
       0.067       67    4143.0751   0.44322858 -2.3044589e-12 -8.3905415e-13     57.10648     57.10648   -97.898399   -97.898399 5.8654656e-12 
       0.068       68    4143.0751   0.44110686 -2.3949732e-12 8.2117627e-13     57.10648     57.10648   -97.899678   -97.899678 7.3796994e-12 
       0.069       69    4143.0751   0.43916097 -2.1064346e-12 8.5864562e-13     57.10648     57.10648   -97.900839   -97.900839 5.6123483e-12 
        0.07       70    4143.0751   0.43712856 -1.545834e-12 -4.840846e-13     57.10648     57.10648   -97.902036   -97.902036 3.4871452e-12 
       0.071       71    4143.0751   0.43521945 -2.3566242e-12 -9.2782318e-13     57.10648     57.10648   -97.903167   -97.903167 3.9821557e-12 
       0.072       72    4143.0751   0.43332711 -2.4506361e-12 -1.0153115e-13     57.10648     57.10648   -97.904303   -97.904303 2.628858e-12 
       0.073       73    4143.0751   0.43135824 -1.4181687e-12 -3.371502e-14     57.10648     57.10648   -97.905489   -97.905489 1.1164229e-12 
       0.074       74    4143.0751   0.42949131 -1.5350273e-12 -1.2698149e-12     57.10648     57.10648   -97.906597   -97.906597 1.3681523e-12 
       0.075       75    4143.0751   0.42780379 -1.7501954e-12 -1.7348231e-12     57.10648     57.10648   -97.907592   -97.907592 1.0169021e-12 
       0.076       76    4143.0751   0.42598515 -1.3022712e-12 -3.4954895e-13     57.10648     57.10648   -97.908673   -97.908673 7.3377664e-13 
       0.077       77    4143.0751   0.42412659 -3.6769511e-13 1.131439e-12     57.10648     57.10648   -97.909791   -97.909791 1.3292805e-12 
       0.078       78    4143.0751   0.42249518 3.3513515e-13 1.4052263e-12     57.10648     57.10648    -97.91077    -97.91077 1.5710929e-12 
       0.079       79    4143.0751   0.42078058 1.1556733e-15 8.5975537e-13     57.10648     57.10648   -97.911786   -97.911786 1.2204377e-12 
        0.08       80    4143.0751   0.41914266 -2.5859655e-13  1.30793e-12     57.10648     57.10648   -97.912752   -97.912752 1.8068099e-12 
       0.081       81    4143.0751   0.41758003 2.5337712e-13 1.4276104e-12     57.10648     57.10648   -97.913684   -97.913684 1.6065939e-12 
       0.082       82    4143.0751   0.41588128 7.2475427e-13 5.6790315e-13     57.10648     57.10648   -97.914706   -97.914706 1.0240028e-12 
       0.083       83    4143.0751   0.41423863 1.0841826e-12 -2.4950104e-13     57.10648     57.10648   -97.915689   -97.915689 1.1727597e-12 
       0.084       84    4143.0751   0.41274854 1.3947138e-12 -6.475808e-13     57.10648     57.10648    -97.91657    -97.91657 1.5249102e-12 
       0.085       85    4143.0751   0.41125438 1.2888516e-12 -5.7706608e-13     57.10648     57.10648   -97.917453   -97.917453 1.0646555e-12 
       0.086       86    4143.0751   0.40967208 1.9111274e-12 -5.87625e-13     57.10648     57.10648     -97.9184     -97.9184 1.7153368e-12 
       0.087       87    4143.0751   0.40820409 2.5821842e-12 -5.1095833e-13     57.10648     57.10648   -97.919282   -97.919282 1.7008239e-12 
       0.088       88    4143.0751   0.40671502 2.7098224e-12 -5.5831129e-13     57.10648     57.10648   -97.920171   -97.920171 1.4585982e-12 
       0.089       89    4143.0751   0.40524127 2.2400155e-12 -1.0687302e-12     57.10648     57.10648   -97.921042   -97.921042 1.7855465e-12 
        0.09       90    4143.0751   0.40389635 2.1742866e-12 -6.2573071e-13     57.10648     57.10648   -97.921839   -97.921839 2.077693e-12 
       0.091       91    4143.0751    0.4024295 2.190646e-12 -1.4017717e-13     57.10648     57.10648   -97.922718   -97.922718 1.4749311e-12 
       0.092       92    4143.0751   0.40097869 1.6074105e-12 -4.2793724e-13     57.10648     57.10648   -97.923589   -97.923589 1.1444038e-12 
       0.093       93    4143.0751    0.3996436 7.0431734e-13 -5.929669e-13     57.10648     57.10648   -97.924384   -97.924384 1.0759469e-12 
       0.094       94    4143.0751   0.39828503 7.7291886e-13 -4.0797985e-13     57.10648     57.10648   -97.925186   -97.925186 4.687459e-13 
       0.095       95    4143.0751   0.39691842 1.8909994e-13 -8.4911001e-13     57.10648     57.10648   -97.925998   -97.925998 3.8848018e-14 
       0.096       96    4143.0751   0.39559357 -6.7217968e-14 -5.6005029e-13     57.10648     57.10648   -97.926793   -97.926793 -1.4481487e-13 
       0.097       97    4143.0751    0.3942589 8.7692359e-14 2.0678621e-13     57.10648     57.10648   -97.927594   -97.927594 -9.1255239e-14 
       0.098       98    4143.0751   0.39292118 -7.1333335e-13 2.2493038e-13     57.10648     57.10648   -97.928388   -97.928388 5.1591148e-14 
       0.099       99    4143.0751   0.39170209 -8.1193013e-13 2.4407323e-13     57.10648     57.10648   -97.929109   -97.929109 9.197596e-14 
         0.1      100    4143.0751    0.3904219 -9.5953069e-14 4.5210562e-13     57.10648     57.10648   -97.929871   -97.929871 3.4773878e-13 
       0.101      101    4143.0751   0.38909691 -3.1745171e-13 4.0677141e-13     57.10648     57.10648   -97.930666   -97.930666 6.1642532e-13 
       0.102      102    4143.0751   0.38787669 -6.1678982e-13 -1.204328e-13     57.10648     57.10648   -97.931396   -97.931396 6.1783563e-13 
       0.103      103    4143.0751   0.38661387 -1.7092405e-13 -1.5242151e-13     57.10648     57.10648   -97.932145   -97.932145 4.5376341e-13 
       0.104      104    4143.0751   0.38539226 -4.721882e-13 -4.9408029e-13     57.10648     57.10648   -97.932868   -97.932868 2.2695742e-13 
       0.105      105    4143.0751    0.3842133 -8.5929603e-13 -6.9946748e-13     57.10648     57.10648   -97.933572   -97.933572 1.9055955e-13 
       0.106      106    4143.0751   0.38296491 -2.1467853e-13 -4.7804608e-13     57.10648     57.10648   -97.934321   -97.934321 -1.7299588e-13 
       0.107      107    4143.0751   0.38173731 -3.1700229e-13 -5.5132648e-13     57.10648     57.10648   -97.935054   -97.935054 -1.5776984e-13 
       0.108      108    4143.0751   0.38059558 -4.4835379e-13 -1.1770577e-13     57.10648     57.10648    -97.93573    -97.93573 -2.0641546e-13 
       0.109      109    4143.0751   0.37943633 3.6949119e-14 -1.5349934e-13     57.10648     57.10648   -97.936417   -97.936417 -7.6032177e-14 
        0.11      110    4143.0751   0.37821895 3.940966e-13 -1.076419e-13     57.10648     57.10648   -97.937145   -97.937145 1.1167063e-13 
       0.111      111    4143.0751    0.3770792 4.7762235e-13 -1.8944345e-13     57.10648     57.10648   -97.937829   -97.937829 2.1801889e-13 
       0.112      112    4143.0751   0.37591813 6.9286556e-13  2.25275e-13     57.10648     57.10648   -97.938521   -97.938521 1.3081623e-13 
       0.113      113    4143.0751   0.37476947 6.3492421e-13 -1.73131e-13     57.10648     57.10648   -97.939201   -97.939201 1.8268113e-13 
       0.114      114    4143.0751   0.37369293 8.865669e-13 -4.0798978e-13     57.10648     57.10648    -97.93984    -97.93984 2.625456e-13 
       0.115      115    4143.0751   0.37253578 9.7463098e-13 -3.5804639e-13     57.10648     57.10648   -97.940533   -97.940533 1.0423362e-13 
       0.116      116    4143.0751   0.37140274 1.1202981e-12 2.2944689e-14     57.10648     57.10648   -97.941212   -97.941212 -3.4604394e-15 
       0.117      117    4143.0751   0.37032948 1.2192038e-12 4.0941193e-13     57.10648     57.10648    -97.94185    -97.94185 3.4320358e-14 
       0.118      118    4143.0751    0.3692281 1.0616962e-12 3.1270526e-14     57.10648     57.10648   -97.942502   -97.942502 7.6736164e-14 
       0.119      119    4143.0751   0.36812664 1.1173284e-12 -3.3561216e-13     57.10648     57.10648   -97.943158   -97.943158 1.1226094e-13 
        0.12      120    4143.0751   0.36704276 1.0910631e-12 -4.1032993e-13     57.10648     57.10648   -97.943807   -97.943807 3.5953457e-13 
       0.121      121    4143.0751   0.36593909 1.4306974e-12 -2.4840808e-13     57.10648     57.10648   -97.944468   -97.944468 2.1069425e-13 
       0.122      122    4143.0751   0.36484894 1.9771138e-12 2.6035948e-13     57.10648     57.10648   -97.945115   -97.945115 4.2281154e-13 
       0.123      123    4143.0751   0.36383434 1.8543333e-12 3.9140567e-13     57.10648     57.10648   -97.945716   -97.945716 2.9989219e-13 
       0.124      124    4143.0751   0.36275545 1.3800988e-12 3.4626162e-13     57.10648     57.10648   -97.946359   -97.946359 2.3028257e-13 
       0.125      125    4143.0751   0.36166738 1.8166991e-12 3.7099952e-13     57.10648     57.10648   -97.947011   -97.947011 2.1094301e-13 
       0.126      126    4143.0751   0.36065112 1.4161366e-12 3.2838724e-13     57.10648     57.10648   -97.947618   -97.947618 6.1252007e-14 
       0.127      127    4143.0751   0.35959676 8.3950744e-13 2.5852529e-13     57.10648     57.10648   -97.948244   -97.948244 1.5850872e-13 
       0.128      128    4143.0751   0.35857088 7.378169e-13 4.3629324e-13     57.10648     57.10648   -97.948852   -97.948852 3.1239713e-14 
       0.129      129    4143.0751   0.35754583 5.7837948e-13 2.9099715e-13     57.10648     57.10648   -97.949464   -97.949464 -1.4503098e-14 
        0.13      130    4143.0751   0.35648564 1.8475968e-13 1.2250158e-13     57.10648     57.10648     -97.9501     -97.9501 9.3525178e-14 
       0.131      131    4143.0751   0.35546265 1.7261062e-13 -2.8057371e-13     57.10648     57.10648    -97.95071    -97.95071 1.5038223e-14 
       0.132      132    4143.0751   0.35446709 -1.9739956e-13 -4.2843455e-14     57.10648     57.10648     -97.9513     -97.9513 2.4203088e-14 
       0.133      133    4143.0751   0.35344863 -7.2109151e-14 -2.1985744e-13     57.10648     57.10648   -97.951905   -97.951905 1.7603435e-14 
       0.134      134    4143.0751   0.35242318 3.1094464e-13 2.3298949e-13     57.10648     57.10648   -97.952518   -97.952518 4.586404e-13 
       0.135      135    4143.0751   0.35142974 3.1591563e-13 1.9236773e-13     57.10648     57.10648   -97.953113   -97.953113 4.2410232e-13 
       0.136      136    4143.0751    0.3504081 2.0040244e-13 4.514033e-13     57.10648     57.10648   -97.953721   -97.953721 3.5616835e-13 
       0.137      137    4143.0751   0.34942889 5.4925814e-13 4.6079894e-13     57.10648     57.10648   -97.954302   -97.954302 4.3914008e-13 
       0.138      138    4143.0751    0.3484637 8.3958137e-14 7.7502317e-14     57.10648     57.10648   -97.954875   -97.954875 4.7052582e-13 
       0.139      139    4143.0751   0.34743225 -1.5709689e-13 -1.8177152e-13     57.10648     57.10648   -97.955492   -97.955492 3.963865e-13 
        0.14      140    4143.0751   0.34645344 -3.6580154e-15 -5.7512119e-14     57.10648     57.10648   -97.956078   -97.956078 3.7281892e-13 
       0.141      141    4143.0751    0.3454792 2.8380598e-13 -5.4607312e-14     57.10648     57.10648   -97.956658   -97.956658 2.042505e-13 
       0.142      142    4143.0751   0.34448678 1.508655e-13 5.3808729e-13     57.10648     57.10648   -97.957246   -97.957246 2.8774712e-13 
       0.143      143    4143.0751   0.34352517 1.3288815e-13 9.9811108e-13     57.10648     57.10648   -97.957819   -97.957819 2.5236437e-13 
       0.144      144    4143.0751   0.34254726 1.6206861e-13 6.9011364e-13     57.10648     57.10648   -97.958404   -97.958404 2.5178362e-13 
       0.145      145    4143.0751   0.34155339 2.2505525e-13 2.7496152e-13     57.10648     57.10648   -97.958998   -97.958998 -5.7160287e-14 
       0.146      146    4143.0751   0.34059798 2.5977577e-13 8.3180285e-13     57.10648     57.10648   -97.959566   -97.959566 2.309116e-13 
       0.147      147    4143.0751   0.33965965 5.7743265e-13 1.0687788e-12     57.10648     57.10648   -97.960122   -97.960122 1.4808508e-13 
       0.148      148    4143.0751   0.33867452 4.1585096e-13 7.5365882e-13     57.10648     57.10648    -97.96071    -97.96071 1.2028754e-13 
       0.149      149    4143.0751   0.33771838 2.7371909e-13 5.5959126e-13     57.10648     57.10648   -97.961282   -97.961282 1.7553822e-13 
        0.15      150    4143.0751   0.33676598 2.7465925e-13 6.4799989e-13     57.10648     57.10648   -97.961851   -97.961851 1.9562103e-13 
       0.151      151    4143.0751   0.33578973 2.2849695e-13 6.7853928e-13     57.10648     57.10648    -97.96243    -97.96243 9.6319573e-14 
       0.152      152    4143.0751   0.33486604 -2.6727125e-13 2.8899775e-13     57.10648     57.10648   -97.962979   -97.962979 7.0359137e-14 
       0.153      153    4143.0751   0.33390469 -2.0455582e-13 -5.9852008e-14     57.10648     57.10648   -97.963552   -97.963552 4.4415332e-14 
       0.154      154    4143.0751    0.3329283 -8.6402612e-15 1.9993533e-13     57.10648     57.10648   -97.964137   -97.964137 1.8911353e-13 
       0.155      155    4143.0751   0.33200405 -2.5008366e-13 1.4670968e-13     57.10648     57.10648   -97.964688   -97.964688 2.6130427e-13 
       0.156      156    4143.0751    0.3310644 -5.4916637e-14 2.8345369e-13     57.10648     57.10648   -97.965245   -97.965245 1.7948995e-13 
       0.157      157    4143.0751   0.33011319 -5.4419632e-14 2.7346944e-13     57.10648     57.10648   -97.965811   -97.965811 2.6991981e-13 
       0.158      158    4143.0751   0.32917636 -2.7776628e-13 3.668888e-13     57.10648     57.10648    -97.96637    -97.96637 5.3970034e-13 
       0.159      159    4143.0751   0.32823472 -3.8635854e-13 3.7823652e-13     57.10648     57.10648   -97.966934   -97.966934 2.9245295e-13 
        0.16      160    4143.0751   0.32728357 -7.0945258e-14 4.1654804e-13     57.10648     57.10648     -97.9675     -97.9675 3.6504844e-13 
       0.161      161    4143.0751    0.3263749 1.1279467e-13 -1.2756545e-14     57.10648     57.10648   -97.968039   -97.968039 1.6815852e-13 
       0.162      162    4143.0751   0.32544313 -3.2827127e-14 -1.5141412e-13     57.10648     57.10648   -97.968594   -97.968594 7.6734078e-14 
       0.163      163    4143.0751   0.32448327 -1.3863142e-14 -2.8371249e-14     57.10648     57.10648   -97.969168   -97.969168 3.0940727e-14 
       0.164      164    4143.0751   0.32357037 -2.9823723e-13 2.5228434e-13     57.10648     57.10648   -97.969713   -97.969713 9.8904837e-14 
       0.165      165    4143.0751   0.32263229 -2.7876581e-13 3.522437e-13     57.10648     57.10648   -97.970271   -97.970271 1.6656864e-13 
       0.166      166    4143.0751   0.32170723 1.0255944e-13 3.687797e-13     57.10648     57.10648    -97.97082    -97.97082 -1.9240978e-14 
       0.167      167    4143.0751   0.32079667 2.5563847e-13 1.1368247e-13     57.10648     57.10648   -97.971363   -97.971363 9.7957972e-14 
       0.168      168    4143.0751   0.31984521 4.1015688e-13 2.3902261e-13     57.10648     57.10648   -97.971932   -97.971932 1.8514533e-13 
       0.169      169    4143.0751   0.31891604 6.1629817e-14 2.1820874e-13     57.10648     57.10648   -97.972487   -97.972487 1.6605888e-13 
        0.17      170    4143.0751   0.31800646 6.9104746e-14 4.5233328e-13     57.10648     57.10648   -97.973027   -97.973027 1.6093592e-13 
       0.171      171    4143.0751   0.31708102 2.9001057e-13 5.0578666e-13     57.10648     57.10648   -97.973577   -97.973577 7.6553669e-14 
       0.172      172    4143.0751   0.31615004 3.987926e-13 2.1076455e-13     57.10648     57.10648   -97.974132   -97.974132 2.8264255e-13 
       0.173      173    4143.0751   0.31523708 2.4752287e-13 2.0236024e-13     57.10648     57.10648   -97.974678   -97.974678 1.7479566e-13 
       0.174      174    4143.0751   0.31430353 1.8305086e-13 4.2540458e-13     57.10648     57.10648   -97.975235   -97.975235 1.1732135e-13 
       0.175      175    4143.0751   0.31338319 2.5844082e-13 7.3999083e-13     57.10648     57.10648   -97.975782   -97.975782 4.3588619e-13 
       0.176      176    4143.0751   0.31248928 2.4110654e-13 6.342523e-13     57.10648     57.10648   -97.976313   -97.976313 2.8507884e-13 
       0.177      177    4143.0751   0.31154934 1.1375435e-13 5.213728e-13     57.10648     57.10648   -97.976874   -97.976874 3.4936377e-13 
       0.178      178    4143.0751   0.31063274 2.7080683e-13 7.4790037e-13     57.10648     57.10648   -97.977422   -97.977422 5.1108927e-13 
       0.179      179    4143.0751   0.30972594 4.1526157e-13 5.3257417e-13     57.10648     57.10648   -97.977962   -97.977962 4.711045e-13 
        0.18      180    4143.0751   0.30879963 5.9229983e-13 3.6296633e-13     57.10648     57.10648   -97.978512   -97.978512 4.0138346e-13 
       0.181      181    4143.0751   0.30790193 8.1898754e-13 5.5608767e-13     57.10648     57.10648   -97.979046   -97.979046 4.4443291e-13 
       0.182      182    4143.0751     0.306982 6.6413373e-13 4.2214644e-13     57.10648     57.10648   -97.979596   -97.979596 1.3390129e-13 
       0.183      183    4143.0751   0.30604938 3.2197458e-13 2.2121561e-13     57.10648     57.10648   -97.980153   -97.980153 3.3692036e-13 
       0.184      184    4143.0751   0.30514291 2.8558274e-13 -7.5246978e-14     57.10648     57.10648   -97.980693   -97.980693 3.998541e-13 
       0.185      185    4143.0751   0.30423955  5.28028e-14 3.2722128e-14     57.10648     57.10648   -97.981229   -97.981229 3.3895424e-13 
       0.186      186    4143.0751   0.30331566 -3.2288202e-13 6.1000041e-14     57.10648     57.10648   -97.981779   -97.981779 3.5434126e-13 
       0.187      187    4143.0751   0.30240342 -1.7085462e-13 1.0145107e-13     57.10648     57.10648   -97.982324   -97.982324 2.7077788e-13 
       0.188      188    4143.0751   0.30149308 -1.0320595e-13 5.7281209e-15     57.10648     57.10648   -97.982868   -97.982868 4.6491933e-13 
       0.189      189    4143.0751   0.30056673 1.0423741e-13 3.1463585e-14     57.10648     57.10648   -97.983419   -97.983419 4.2256289e-13 
        0.19      190    4143.0751    0.2996782 -1.037561e-14 1.9698483e-13     57.10648     57.10648   -97.983947   -97.983947 5.1204726e-13 
       0.191      191    4143.0751   0.29876385 9.7692612e-14 3.7583593e-13     57.10648     57.10648   -97.984492   -97.984492 5.176628e-13 
       0.192      192    4143.0751   0.29783387 2.0776102e-13 4.8543815e-13     57.10648     57.10648   -97.985048   -97.985048 3.7998725e-13 
       0.193      193    4143.0751   0.29693998 1.4082971e-13 3.7366105e-13     57.10648     57.10648   -97.985581   -97.985581 3.9131623e-13 
       0.194      194    4143.0751   0.29601893 1.090217e-13 3.7954527e-13     57.10648     57.10648   -97.986129   -97.986129 1.9444889e-13 
       0.195      195    4143.0751   0.29510613 2.5663682e-13 1.4645506e-13     57.10648     57.10648   -97.986671   -97.986671 2.4487859e-13 
       0.196      196    4143.0751    0.2942037 1.1690419e-13 4.0108667e-13     57.10648     57.10648   -97.987209   -97.987209 2.2066556e-13 
       0.197      197    4143.0751   0.29327958 -3.8598103e-13 5.959958e-13     57.10648     57.10648   -97.987762   -97.987762 2.8033035e-13 
       0.198      198    4143.0751   0.29236255 -6.040525e-13 6.4497259e-13     57.10648     57.10648   -97.988309   -97.988309 2.7859178e-13 
       0.199      199    4143.0751   0.29146187 -4.4170128e-13 5.1223757e-13     57.10648     57.10648   -97.988844   -97.988844 1.2701563e-13 
         0.2      200    4143.0751   0.29054674 3.8017562e-14 6.3850134e-13     57.10648     57.10648   -97.989388   -97.989388 3.3901619e-13 
       0.201      201    4143.0751   0.28962269 -5.8223115e-14 4.5933477e-13     57.10648     57.10648    -97.98994    -97.98994 2.6004259e-13 
       0.202      202    4143.0751   0.28872244 -1.2224973e-13 2.0352453e-13     57.10648     57.10648   -97.990477   -97.990477 1.5874054e-13 
       0.203      203    4143.0751    0.2877984 -1.1195952e-13 3.572525e-13     57.10648     57.10648   -97.991028   -97.991028 2.5670761e-13 
       0.204      204    4143.0751   0.28689085 9.7552092e-14 9.0861495e-13     57.10648     57.10648   -97.991567   -97.991567 1.4150971e-13 
       0.205      205    4143.0751   0.28599811 3.4922408e-14 6.9389119e-13     57.10648     57.10648   -97.992098   -97.992098 1.1847159e-13 
       0.206      206    4143.0751    0.2850641 1.4505693e-13 2.4371144e-13     57.10648     57.10648   -97.992656   -97.992656 2.8642071e-13 
       0.207      207    4143.0751   0.28415608 -7.7329158e-14 -9.1734877e-15     57.10648     57.10648   -97.993199   -97.993199 1.8359416e-13 
       0.208      208    4143.0751   0.28325004 -6.4052306e-14 3.5641852e-13     57.10648     57.10648   -97.993738   -97.993738 3.5501837e-13 
       0.209      209    4143.0751   0.28233023 -1.0463982e-13 3.6914573e-13     57.10648     57.10648   -97.994284   -97.994284 1.5697223e-13 
        0.21      210    4143.0751   0.28142638 -4.3946419e-14 1.4321848e-13     57.10648     57.10648   -97.994823   -97.994823 2.9412012e-13 
       0.211      211    4143.0751   0.28050832 -7.8693933e-14 -3.7601912e-14     57.10648     57.10648   -97.995371   -97.995371 2.0698804e-13 
       0.212      212    4143.0751   0.27958062 -3.9846112e-15 3.6155612e-14     57.10648     57.10648   -97.995925   -97.995925 2.0516546e-13 
       0.213      213    4143.0751    0.2786731 5.4856373e-13 1.4933432e-13     57.10648     57.10648   -97.996465   -97.996465 2.9810399e-13 
       0.214      214    4143.0751   0.27777115 4.0129682e-13 -4.6831988e-14     57.10648     57.10648   -97.997001   -97.997001 1.9063861e-13 
       0.215      215    4143.0751   0.27684104 1.8220021e-13 -5.8625723e-14     57.10648     57.10648   -97.997555   -97.997555 1.3037695e-13 
       0.216      216    4143.0751    0.2759288 2.1102186e-13 1.5079922e-13     57.10648     57.10648     -97.9981     -97.9981 2.8454303e-13 
       0.217      217    4143.0751   0.27501626 3.2173887e-13 7.6361705e-14     57.10648     57.10648   -97.998645   -97.998645 2.4909896e-14 
       0.218      218    4143.0751   0.27408943 1.2977671e-13 -9.1539279e-13     57.10648     57.10648   -97.999196   -97.999196 1.9763875e-13 
       0.219      219    4143.0751   0.27319455 -1.8386778e-13 -7.8756124e-13     57.10648     57.10648   -97.999728   -97.999728 5.6678898e-14 
        0.22      220    4143.0751   0.27227057 -7.2962271e-14 -6.4200925e-13     57.10648     57.10648   -98.000279   -98.000279 7.4628877e-14 
       0.221      221    4143.0751   0.27133997 -7.5858168e-14 -6.6813901e-13     57.10648     57.10648   -98.000835   -98.000835 -8.6664833e-14 
       0.222      222    4143.0751   0.27043393 -6.6534206e-14 -3.856845e-13     57.10648     57.10648   -98.001375   -98.001375 3.5820244e-14 
       0.223      223    4143.0751   0.26951259 1.6886711e-13 4.9913528e-14     57.10648     57.10648   -98.001923   -98.001923 -2.4478253e-14 
       0.224      224    4143.0751   0.26859675 4.4999021e-13 1.911453e-13     57.10648     57.10648   -98.002467   -98.002467 1.0354253e-13 
       0.225      225    4143.0751   0.26768064 2.943258e-13 -2.1832299e-13     57.10648     57.10648   -98.003014   -98.003014 9.5317855e-14 
       0.226      226    4143.0751   0.26675158 -6.3810059e-15 -3.1739671e-13     57.10648     57.10648   -98.003569   -98.003569 8.1806977e-14 
       0.227      227    4143.0751   0.26582748 -3.5262065e-14 -6.2660491e-13     57.10648     57.10648    -98.00412    -98.00412 2.0622067e-13 
       0.228      228    4143.0751   0.26492285 -1.0663004e-13 -8.1699017e-13     57.10648     57.10648   -98.004657   -98.004657 2.6873516e-13 
       0.229      229    4143.0751   0.26400061 2.1846331e-13 -2.1341238e-13     57.10648     57.10648   -98.005206   -98.005206 1.1414405e-13 
        0.23      230    4143.0751   0.26307198 2.8268733e-13 -1.9017551e-13     57.10648     57.10648   -98.005761   -98.005761 2.2001977e-13 
       0.231      231    4143.0751    0.2621587 4.4365565e-13 -2.2313957e-13     57.10648     57.10648   -98.006306   -98.006306 2.6332329e-13 
       0.232      232    4143.0751   0.26122319 2.5145513e-13 -5.6177987e-13     57.10648     57.10648   -98.006863   -98.006863 3.3741594e-13 
       0.233      233    4143.0751   0.26031214 -3.429627e-13 -5.1432861e-13     57.10648     57.10648   -98.007404   -98.007404 1.7858249e-13 
       0.234      234    4143.0751   0.25939919 -5.4612552e-13 -9.6682694e-13     57.10648     57.10648   -98.007948   -98.007948 1.7608863e-13 
       0.235      235    4143.0751   0.25845572 4.4684879e-14 -1.0818947e-12     57.10648     57.10648   -98.008512   -98.008512 1.8126884e-13 
       0.236      236    4143.0751   0.25753893 3.1348166e-13 -1.0616894e-12     57.10648     57.10648   -98.009059   -98.009059 -5.9520184e-14 
       0.237      237    4143.0751   0.25661719 -1.9009221e-13 -7.5251974e-13     57.10648     57.10648   -98.009607   -98.009607 1.0393311e-13 
       0.238      238    4143.0751   0.25568852 -3.7238558e-13 -6.2374259e-13     57.10648     57.10648   -98.010159   -98.010159 3.7241951e-14 
       0.239      239    4143.0751   0.25476833 -6.865479e-13 -9.2572117e-13     57.10648     57.10648   -98.010708   -98.010708 -2.4844707e-14 
        0.24      240    4143.0751   0.25383937 -4.2717779e-13 -1.1777108e-12     57.10648     57.10648   -98.011263   -98.011263 -9.6664339e-14 
       0.241      241    4143.0751   0.25290351 9.5193108e-14 -1.4344298e-12     57.10648     57.10648   -98.011821   -98.011821 5.9144097e-14 
       0.242      242    4143.0751   0.25198539 5.7876059e-13 -1.1306674e-12     57.10648     57.10648   -98.012367   -98.012367 -7.0514095e-14 
       0.243      243    4143.0751   0.25106624 2.1112506e-13 -7.6473117e-13     57.10648     57.10648   -98.012913   -98.012913 9.2028064e-14 
       0.244      244    4143.0751   0.25012277 -7.5176934e-14 -5.7434766e-13     57.10648     57.10648   -98.013476   -98.013476 1.1229431e-13 
       0.245      245    4143.0751   0.24919939 5.1891273e-13 -3.2763638e-13     57.10648     57.10648   -98.014028   -98.014028 2.0357173e-14 
       0.246      246    4143.0751   0.24826603 7.7700097e-13 -2.1112357e-13     57.10648     57.10648   -98.014584   -98.014584 3.8249172e-14 
       0.247      247    4143.0751   0.24733213 4.3769191e-13 -6.2633012e-14     57.10648     57.10648   -98.015139   -98.015139 1.3697175e-13 
       0.248      248    4143.0751   0.24641878 3.0855196e-13 -3.1682794e-13     57.10648     57.10648   -98.015683   -98.015683 2.5616299e-13 
       0.249      249    4143.0751   0.24547395 4.5909056e-13 -2.8851831e-13     57.10648     57.10648   -98.016247   -98.016247 3.6252407e-14 
        0.25      250    4143.0751   0.24453963 3.900588e-13 -4.3407828e-13     57.10648     57.10648   -98.016804   -98.016804 1.3085537e-13 
       0.251      251    4143.0751   0.24361634 5.5990395e-13 -7.0811453e-13     57.10648     57.10648   -98.017354   -98.017354 9.6792493e-14 
       0.252      252    4143.0751   0.24267796 7.285035e-13 -5.9447281e-13     57.10648     57.10648   -98.017912   -98.017912 1.1947795e-13 
       0.253      253    4143.0751   0.24174764 5.6308181e-13 -3.8407523e-13     57.10648     57.10648   -98.018466   -98.018466 2.5729434e-14 
       0.254      254    4143.0751   0.24081651 6.8782935e-13 -5.2038029e-13     57.10648     57.10648   -98.019022   -98.019022 7.4515644e-14 
       0.255      255    4143.0751   0.23987407 6.4578089e-13 -7.9201801e-13     57.10648     57.10648   -98.019585   -98.019585 -1.4056765e-13 
       0.256      256    4143.0751   0.23894138 2.6093779e-13 -5.41211e-13     57.10648     57.10648    -98.02014    -98.02014 1.4967377e-13 
       0.257      257    4143.0751   0.23802174 6.8979702e-14 -8.1724329e-14     57.10648     57.10648   -98.020687   -98.020687 2.6571317e-13 
       0.258      258    4143.0751   0.23707407 6.9641902e-14 -2.8119201e-13     57.10648     57.10648   -98.021251   -98.021251 8.6574339e-14 
       0.259      259    4143.0751    0.2361332 2.2804274e-13 -5.9137965e-13     57.10648     57.10648   -98.021813   -98.021813 -4.6292813e-14 
        0.26      260    4143.0751   0.23520253 -3.1752658e-14 -3.7997017e-13     57.10648     57.10648   -98.022368   -98.022368 2.489697e-14 
       0.261      261    4143.0751   0.23425254 -1.0553052e-14 -2.800455e-13     57.10648     57.10648   -98.022933   -98.022933 2.6136286e-13 
       0.262      262    4143.0751   0.23332823 3.2644585e-13 -4.102343e-13     57.10648     57.10648   -98.023483   -98.023483 2.4164434e-13 
       0.263      263    4143.0751   0.23238926 2.6111624e-13 -4.3206646e-13     57.10648     57.10648   -98.024043   -98.024043 7.9108842e-14 
       0.264      264    4143.0751   0.23143662 -1.2549508e-13 -6.558471e-13     57.10648     57.10648   -98.024612   -98.024612 5.8605797e-14 
       0.265      265    4143.0751   0.23050745 -2.2512969e-13 -5.771911e-13     57.10648     57.10648   -98.025166   -98.025166 9.2966784e-14 
       0.266      266    4143.0751   0.22956603 1.5733398e-13 -1.0321358e-12     57.10648     57.10648   -98.025726   -98.025726 2.5486058e-13 
       0.267      267    4143.0751   0.22862174 -5.9599325e-13 -1.0340334e-12     57.10648     57.10648   -98.026287   -98.026287 1.6216974e-13 
       0.268      268    4143.0751    0.2276828 -5.342682e-13 -7.0335155e-13     57.10648     57.10648   -98.026848   -98.026848 2.4662903e-13 
       0.269      269    4143.0751   0.22673704 -2.7859896e-14 -4.9730204e-13     57.10648     57.10648   -98.027412   -98.027412 1.8989518e-13 
        0.27      270    4143.0751   0.22578915 4.0324313e-14 -4.5136494e-13     57.10648     57.10648   -98.027977   -98.027977 3.2912093e-14 
       0.271      271    4143.0751   0.22485931 -1.1371401e-13 -4.5593519e-13     57.10648     57.10648    -98.02853    -98.02853 -2.8582191e-14 
       0.272      272    4143.0751   0.22391605 2.553193e-13 -8.8766372e-14     57.10648     57.10648   -98.029091   -98.029091 7.9348203e-15 
       0.273      273    4143.0751    0.2229607 5.1462371e-13 2.404011e-13     57.10648     57.10648   -98.029662   -98.029662 -4.963569e-14 
       0.274      274    4143.0751   0.22202767 1.549523e-13 2.0131133e-13     57.10648     57.10648   -98.030219   -98.030219 1.0642963e-13 
       0.275      275    4143.0751   0.22107359 6.0342538e-14 -6.3741677e-13     57.10648     57.10648   -98.030787   -98.030787 6.0499752e-16 
       0.276      276    4143.0751   0.22012915 1.713658e-13 -8.8242221e-13     57.10648     57.10648   -98.031348   -98.031348 1.3918972e-13 
       0.277      277    4143.0751    0.2191937 4.9320369e-13 -7.2895171e-13     57.10648     57.10648   -98.031905   -98.031905 1.7371705e-13 
       0.278      278    4143.0751   0.21823054 7.5682313e-13 -5.8704156e-13     57.10648     57.10648    -98.03248    -98.03248 1.2395599e-13 
       0.279      279    4143.0751   0.21728437 5.4951336e-13 -5.4328831e-13     57.10648     57.10648   -98.033045   -98.033045 2.5767809e-13 
        0.28      280    4143.0751   0.21633977 4.0638484e-13 -6.7045248e-13     57.10648     57.10648   -98.033607   -98.033607 2.9857222e-13 
       0.281      281    4143.0751   0.21538768 5.1998739e-13 -4.8032265e-13     57.10648     57.10648   -98.034173   -98.034173 2.4992418e-13 
       0.282      282    4143.0751   0.21444287 1.006617e-12 -9.7775766e-13     57.10648     57.10648   -98.034736   -98.034736 2.0986529e-13 
       0.283      283    4143.0751   0.21349251 5.068646e-13 -1.2998734e-12     57.10648     57.10648   -98.035304   -98.035304 1.939641e-14 
       0.284      284    4143.0751   0.21253231 1.309063e-13 -1.2148892e-12     57.10648     57.10648   -98.035877   -98.035877 1.3627647e-13 
       0.285      285    4143.0751   0.21158583 7.4724382e-14 -5.892953e-13     57.10648     57.10648    -98.03644    -98.03644 1.169212e-13 
       0.286      286    4143.0751   0.21064433 3.0663943e-13 -3.8907332e-13     57.10648     57.10648      -98.037      -98.037 1.3189908e-13 
       0.287      287    4143.0751   0.20967824 3.9082976e-13 -8.3030922e-13     57.10648     57.10648   -98.037576   -98.037576 1.6304299e-14 
       0.288      288    4143.0751    0.2087295 5.0544005e-13 -7.8921926e-13     57.10648     57.10648   -98.038142   -98.038142 1.8511899e-13 
       0.289      289    4143.0751   0.20777743 8.5347412e-13 -8.6660617e-13     57.10648     57.10648    -98.03871    -98.03871 2.0906101e-14 
        0.29      290    4143.0751   0.20681757 6.7350617e-13 -1.4372653e-13     57.10648     57.10648   -98.039281   -98.039281 9.7385339e-14 
       0.291      291    4143.0751   0.20588117 3.1623772e-13 1.8619712e-13     57.10648     57.10648   -98.039838   -98.039838 1.2687697e-13 
       0.292      292    4143.0751   0.20491743 1.9144766e-13 2.4831887e-14     57.10648     57.10648   -98.040413   -98.040413 -5.1194382e-14 
       0.293      293    4143.0751   0.20395173 3.3578347e-13 -6.4967736e-13     57.10648     57.10648   -98.040989   -98.040989 1.1457267e-13 
       0.294      294    4143.0751   0.20300406 9.1881605e-14 -3.2836541e-13     57.10648     57.10648   -98.041554   -98.041554 8.7441598e-15 
       0.295      295    4143.0751   0.20204764 -5.5630177e-14 -1.4094944e-13     57.10648     57.10648   -98.042123   -98.042123 1.2222399e-13 
       0.296      296    4143.0751   0.20109204 -3.2549235e-13 -7.157666e-13     57.10648     57.10648   -98.042692   -98.042692 2.4380077e-13 
       0.297      297    4143.0751   0.20013517 -4.4745648e-13 -5.1872705e-13     57.10648     57.10648   -98.043263   -98.043263 8.8131829e-14 
       0.298      298    4143.0751   0.19916945 -3.3687327e-13 5.0065212e-13     57.10648     57.10648   -98.043839   -98.043839 6.7965347e-14 
       0.299      299    4143.0751   0.19820679 -8.4087039e-13 6.8345957e-13     57.10648     57.10648   -98.044412   -98.044412 1.5698004e-13 
         0.3      300    4143.0751   0.19726091 -1.013537e-12 7.6004418e-14     57.10648     57.10648   -98.044975   -98.044975 1.6561285e-13 
       0.301      301    4143.0751   0.19629646 -1.3040521e-13 -3.6272961e-13     57.10648     57.10648   -98.045549   -98.045549 9.0781975e-14 
       0.302      302    4143.0751   0.19533168 -1.2523129e-14 -2.1982039e-13     57.10648     57.10648   -98.046125   -98.046125 7.8685154e-14 
       0.303      303    4143.0751   0.19437943 -5.8090346e-13 3.7459059e-13     57.10648     57.10648   -98.046693   -98.046693 1.3775084e-13 
       0.304      304    4143.0751   0.19340955 -5.4361789e-13 8.2540688e-14     57.10648     57.10648    -98.04727    -98.04727 1.0293762e-13 
       0.305      305    4143.0751   0.19246027 -4.2157556e-13 3.3018032e-13     57.10648     57.10648   -98.047835   -98.047835 7.3274603e-14 
       0.306      306    4143.0751   0.19150215 -6.5251201e-13 5.472235e-13     57.10648     57.10648   -98.048406   -98.048406 1.2426976e-13 
       0.307      307    4143.0751   0.19052498 -2.3794902e-13 3.2372041e-13     57.10648     57.10648   -98.048989   -98.048989 3.5172201e-14 
       0.308      308    4143.0751   0.18956831 5.5223401e-14 -3.0546903e-13     57.10648     57.10648    -98.04956    -98.04956 -3.8957896e-15 
       0.309      309    4143.0751   0.18860625 -2.7511529e-13 3.8640622e-14     57.10648     57.10648   -98.050132   -98.050132 1.6465083e-13 
        0.31      310    4143.0751   0.18764091 -6.1005612e-13 -3.3023005e-14     57.10648     57.10648   -98.050707   -98.050707 1.7973177e-13 
       0.311      311    4143.0751   0.18668008 -2.59137e-13 -3.2566867e-13     57.10648     57.10648    -98.05128    -98.05128 1.9245045e-13 
       0.312      312    4143.0751   0.18571298 3.7266535e-13 -1.1628386e-13     57.10648     57.10648   -98.051857   -98.051857 1.2199201e-13 
       0.313      313    4143.0751   0.18474028 4.4061976e-13 4.6778378e-13     57.10648     57.10648   -98.052437   -98.052437  1.41493e-13 
       0.314      314    4143.0751   0.18378419 2.4074646e-13 1.6605919e-13     57.10648     57.10648   -98.053005   -98.053005 1.894763e-13 
       0.315      315    4143.0751   0.18282508 3.5243666e-13 -2.5716833e-13     57.10648     57.10648   -98.053576   -98.053576 6.970449e-14 
       0.316      316    4143.0751   0.18184927 -1.1500268e-14 1.547735e-14     57.10648     57.10648   -98.054158   -98.054158 1.4276177e-13 
       0.317      317    4143.0751   0.18088789 4.845897e-13 2.5943136e-13     57.10648     57.10648   -98.054732   -98.054732 2.1636276e-13 
       0.318      318    4143.0751   0.17991336 9.9829327e-13 2.6579676e-13     57.10648     57.10648   -98.055313   -98.055313 1.2598672e-13 
       0.319      319    4143.0751   0.17894616 8.2772447e-13 -1.4259646e-13     57.10648     57.10648   -98.055888   -98.055888 1.0898402e-13 
        0.32      320    4143.0751   0.17798934 5.4003833e-13 -2.2813339e-14     57.10648     57.10648   -98.056458   -98.056458 2.8964468e-13 
       0.321      321    4143.0751   0.17700726 7.2967837e-13 8.3889934e-14     57.10648     57.10648   -98.057044   -98.057044 2.5351132e-14 
       0.322      322    4143.0751   0.17603951 6.1808576e-13 1.5231137e-13     57.10648     57.10648   -98.057621   -98.057621 1.9353407e-13 
       0.323      323    4143.0751   0.17507587 -1.9042401e-13 4.9780679e-13     57.10648     57.10648   -98.058195   -98.058195 1.5574361e-13 
       0.324      324    4143.0751    0.1741033 -5.3280191e-13  8.37163e-13     57.10648     57.10648   -98.058774   -98.058774 1.7377205e-15 
       0.325      325    4143.0751   0.17313566 -4.9557909e-13 7.1172004e-13     57.10648     57.10648    -98.05935    -98.05935 5.0489923e-14 
       0.326      326    4143.0751   0.17216397 -2.6085874e-13 2.3262052e-13     57.10648     57.10648    -98.05993    -98.05993 1.1091346e-13 
       0.327      327    4143.0751     0.171186 4.0492255e-14 2.9463715e-13     57.10648     57.10648   -98.060513   -98.060513 1.2975876e-13 
       0.328      328    4143.0751   0.17021753 -1.5004523e-13 7.1001771e-13     57.10648     57.10648    -98.06109    -98.06109 1.6454052e-13 
       0.329      329    4143.0751   0.16925467 -3.5318874e-14 1.0974451e-12     57.10648     57.10648   -98.061663   -98.061663 4.0654907e-14 
        0.33      330    4143.0751   0.16827193 2.239323e-14 1.1516715e-12     57.10648     57.10648   -98.062248   -98.062248 4.3393794e-15 
       0.331      331    4143.0751   0.16730177 -4.6238912e-14 7.8674886e-13     57.10648     57.10648   -98.062827   -98.062827 2.5591283e-13 
       0.332      332    4143.0751   0.16633159 -4.2778872e-13 4.9753124e-13     57.10648     57.10648   -98.063406   -98.063406 1.4418574e-13 
       0.333      333    4143.0751   0.16535123 -5.3826275e-13 6.3677375e-13     57.10648     57.10648   -98.063989   -98.063989 2.2884411e-13 
       0.334      334    4143.0751   0.16438978 -2.7633317e-13 4.6714533e-13     57.10648     57.10648   -98.064561   -98.064561 2.9283428e-13 
       0.335      335    4143.0751   0.16340885 2.2106265e-13 6.7595026e-13     57.10648     57.10648   -98.065146   -98.065146 2.4650218e-13 
       0.336      336    4143.0751   0.16242846 3.6817451e-13 8.721441e-13     57.10648     57.10648   -98.065731   -98.065731 1.0991175e-13 
       0.337      337    4143.0751   0.16146368 9.6109279e-14 2.7913059e-13     57.10648     57.10648   -98.066306   -98.066306 1.8227746e-13 
       0.338      338    4143.0751   0.16048783 -4.846113e-13 -8.5893502e-14     57.10648     57.10648   -98.066887   -98.066887 1.9912269e-13 
       0.339      339    4143.0751   0.15951529 -5.2660054e-13 -3.3545277e-13     57.10648     57.10648   -98.067466   -98.067466 1.5971916e-13 
        0.34      340    4143.0751   0.15854037 -2.1720072e-14 4.5496479e-13     57.10648     57.10648   -98.068047   -98.068047 4.0954284e-14 
       0.341      341    4143.0751    0.1575569 2.289406e-13 1.2933644e-12     57.10648     57.10648   -98.068634   -98.068634 2.6057885e-13 
       0.342      342    4143.0751   0.15657825 -2.0974049e-13 1.2283069e-12     57.10648     57.10648   -98.069217   -98.069217 2.9366122e-13 
       0.343      343    4143.0751   0.15561244 -3.6061981e-13 9.6388805e-13     57.10648     57.10648   -98.069792   -98.069792 -2.3492169e-14 
       0.344      344    4143.0751   0.15463184 -1.8317868e-13 7.5516566e-13     57.10648     57.10648   -98.070376   -98.070376 1.006923e-13 
       0.345      345    4143.0751   0.15364862 -4.2033131e-13 2.4381067e-13     57.10648     57.10648   -98.070962   -98.070962 5.7880515e-14 
       0.346      346    4143.0751   0.15267696 -5.2277512e-13 2.2251637e-13     57.10648     57.10648   -98.071542   -98.071542 9.5927684e-14 
       0.347      347    4143.0751    0.1516928 -5.4372834e-13 3.1986308e-13     57.10648     57.10648   -98.072128   -98.072128 1.4393413e-13 
       0.348      348    4143.0751   0.15072946 1.0561691e-13 4.465336e-13     57.10648     57.10648   -98.072701   -98.072701 3.5336141e-14 
       0.349      349    4143.0751   0.14977361 3.6991806e-13 4.2455676e-13     57.10648     57.10648   -98.073271   -98.073271 1.2623234e-13 
        0.35      350    4143.0751   0.14883436 5.4620952e-14 4.1637816e-13     57.10648     57.10648   -98.073831   -98.073831 3.8169126e-14 
       0.351      351    4143.0751   0.14797009 -1.7168849e-13 4.7787891e-13     57.10648     57.10648   -98.074347   -98.074347 -3.6420559e-14 
       0.352      352    4143.0751   0.14719659 2.5233992e-13 2.6343523e-13     57.10648     57.10648   -98.074807   -98.074807 1.5989939e-13 
       0.353      353    4143.0751   0.14656782 7.9806208e-13 1.1660932e-13     57.10648     57.10648   -98.075181   -98.075181 7.804058e-14 
       0.354      354    4143.0751   0.14610893 9.2433386e-13 1.2642243e-13     57.10648     57.10648   -98.075455   -98.075455 2.7693564e-14 
       0.355      355    4143.0751   0.14580019 7.0049863e-13 3.582602e-13     57.10648     57.10648   -98.075639   -98.075639 7.297765e-14 
       0.356      356    4143.0751   0.14560612 6.8975478e-13 3.3539266e-13     57.10648     57.10648   -98.075755   -98.075755 -3.0346998e-14 
       0.357      357    4143.0751    0.1454748 4.6103161e-13 2.5416504e-13     57.10648     57.10648   -98.075833   -98.075833 -1.3676176e-14 
Loop time of 18.6831 on 128 procs for 357 steps with 360800 atoms

94.4% CPU use with 128 MPI tasks x 1 OpenMP threads

Minimization stats:
  Stopping criterion = energy tolerance
  Energy initial, next-to-last, final = 
     -1486645.77951318  -1486647.82549146  -1486647.82549146
  Force two-norm initial, final = 7.1080974 5.2088524e-05
  Force max component initial, final = 0.19826945 4.2024152e-07
  Final line search alpha, max atom move = 1.0000000 4.2024152e-07
  Iterations, force evaluations = 357 714

MPI task timing breakdown:
Section |  min time  |  avg time  |  max time  |%varavg| %total
---------------------------------------------------------------
Pair    | 0.59249    | 2.6067     | 6.8135     | 154.6 | 13.95
Neigh   | 0          | 0          | 0          |   0.0 |  0.00
Comm    | 0.023777   | 0.70308    | 2.2023     | 113.0 |  3.76
Output  | 7.1624     | 7.255      | 7.2967     |   1.5 | 38.83
Modify  | 0          | 0          | 0          |   0.0 |  0.00
Other   |            | 8.118      |            |       | 43.45

Nlocal:        2818.75 ave        9200 max           0 min
Histogram: 88 0 0 0 0 0 0 0 1 39
Nghost:        3899.30 ave       13317 max           0 min
Histogram: 87 1 0 0 0 0 2 0 0 38
Neighs:         0.00000 ave           0 max           0 min
Histogram: 128 0 0 0 0 0 0 0 0 0
FullNghs:      472488.0 ave  1.5456e+06 max           0 min
Histogram: 88 0 0 0 0 0 0 1 0 39

Total # of neighbors = 60478400
Ave neighs/atom = 167.62306
Neighbor list builds = 0
Dangerous builds = 0
#fix npt1 all npt temp ${npt_temp} ${npt_temp} 1 iso ${atmos} ${atmos} 1
fix nve1 all nve
#velocity all create ${npt_temp} 12345 dist gaussian
#velocity all create ${npt_temp} ${rand} dist gaussian
#fix rescale all temp/rescale 1 50 50 1.0 1.0
#run ${rescaleSteps}
#unfix rescale
#run ${relaxationSteps}
#minimize 1.0e-2 1.0e28 100000 100000
#write_data aftermm_mlmd.lat
#quit
#nveで系を設定し粒子をminimizeで沈静化させている。minimizeが甘いと超音波信号が不規則に揺れることがある。
#fix 1 all nve
#fix 1 all nvt temp 0.1 0.1 1
#Set the last (right end) number to timestep*100. I dont know why but LAMMPS guide told me so.
#
#
#minimize 1.0e-18 1.0e-18 100000 100000
#
#delete_atoms group longage

#スナップショットが欲しかったらここのインデントを解除する
###dump 0 all cfg 10 all.*.cfg mass type xs ys zs id
###dump_modify 0 element Fe Fe Fe Fe
#dump_modify 0 element Fe Fe Fe Fe Cu


#系の右恥の原子を固定する
#fix 9 edge recenter INIT INIT INIT
#系の右端をばっふぁにする
#fix 9 edge viscos command

############################################################
variable current_time equal time
#variable A equal 0.1
#variable T equal 2.0
#variable A equal 10.0
#variable B equal -1*$A
#variable T equal 200.0

##振幅、周期を定める。
variable A equal 0.01
variable B equal -1*$A
variable B equal -1*0.01
variable T equal 2
variable Q equal 4*$T
variable Q equal 4*2
# Q is temporary symbol of 3.5 times T.
#timestep unit is ps. f = 1000 / T GHz.
variable omega equal 2.0*PI/$T
variable omega equal 2.0*PI/2

#variable m equal 55.845
#variable n equal 800
#variable F equal 96500

#variable z equal 1000
#variable y equal 0.01
#variable c equal 2.0*PI/$T*$z*$y

#the extra output file below should be processed by using OVITO
###正弦波を導入する。同位相なら$A,逆位相なら$B
#fix 2 source move wiggle $A 0.0 0.0 $T
##force setting
#variable frc equal $m*10/$F*v_omega*v_omega*swiggle(0.0,$A,$T)
#fix 2 source setforce v_frc NULL NULL
###velocity adjust
#variable vrc equal -1*v_omega*$A
#velocity source set v_vrc NULL NULL

#unfix 2
#variable w equal (1987.305504+1988.733166)/2-2.855324
#variable w equal (2535.527712+2536.955374)/2-2.855324

#variable w equal 1985.877842
#edgeの初期位置を代入する。
#variable w equal 2003.009786
##########variable w equal 1987.305504

fix strain all deform 40 x trate 0.005
variable boxlen equal lx
variable boxwidth equal ly
variable pressure equal pxx

fix extra all print 1 "${boxlen} ${boxwidth} ${pressure}" file sscurve.txt

variable steps equal 1/dt

run 1000
4143.075124 57.10648 0.145474798540976
Per MPI rank memory allocation (min/avg/max) = 2.046 | 3.215 | 5.894 Mbytes
Time Step Lx Pxx Pxy Pxz Ly Lz Pyy Pzz Pyz 
           0      357    4143.0751    0.1454748 4.4794808e-13 3.0092136e-13     57.10648     57.10648   -98.075833   -98.075833 -2.1327621e-14 
4143.075124 57.10648 0.145474798305828
       0.001      358    4143.0751    0.1454748 6.4294656e-13 3.3075658e-13     57.10648     57.10648   -98.075833   -98.075833 -1.0288582e-14 
4143.075124 57.10648 0.145474797598256
       0.002      359    4143.0751    0.1454748 6.9841309e-13 3.671276e-13     57.10648     57.10648   -98.075833   -98.075833 9.339026e-14 
4143.13727059296 57.10648 0.145472614317591
       0.003      360    4143.1373   0.14547261 5.6625588e-13 5.4529915e-13     57.10648     57.10648   -98.074362   -98.074362 -6.4528765e-14 
4143.13727059296 57.10648 -11.1833683839196
       0.004      361    4143.1373   -11.183368 5.5947621e-13 4.884371e-13     57.10648     57.10648   -104.82875   -104.82875 1.0181675e-13 
4143.13727059296 57.10648 -11.1833425845281
       0.005      362    4143.1373   -11.183343 5.5657862e-13 6.0463414e-13     57.10648     57.10648   -104.82873   -104.82873 -1.9323965e-14 
4143.13727059296 57.10648 -11.183291001508
       0.006      363    4143.1373   -11.183291 5.5799096e-13 4.3287899e-13     57.10648     57.10648   -104.82869   -104.82869 -5.3426175e-14 
4143.13727059296 57.10648 -11.1832136696735
       0.007      364    4143.1373   -11.183214 6.7644328e-13 4.0127427e-13     57.10648     57.10648   -104.82863   -104.82863 -1.5911951e-13 
4143.13727059296 57.10648 -11.183110641187
       0.008      365    4143.1373   -11.183111 3.7376106e-13 2.4744236e-13     57.10648     57.10648   -104.82856   -104.82856 7.2190176e-14 
4143.13727059296 57.10648 -11.1829819854726
       0.009      366    4143.1373   -11.182982 3.9796782e-13 3.4585531e-13     57.10648     57.10648   -104.82846   -104.82846 2.016479e-13 
4143.13727059296 57.10648 -11.1828277891576
        0.01      367    4143.1373   -11.182828 3.0567018e-13 3.5379669e-13     57.10648     57.10648   -104.82835   -104.82835 -4.7469023e-14 
4143.13727059296 57.10648 -11.1826481559278
       0.011      368    4143.1373   -11.182648 2.7557885e-13 4.8304453e-13     57.10648     57.10648   -104.82822   -104.82822 8.2945629e-14 
4143.13727059296 57.10648 -11.1824432064075
       0.012      369    4143.1373   -11.182443 5.7594816e-13 3.8337469e-13     57.10648     57.10648   -104.82807   -104.82807 4.8030982e-14 
4143.13727059296 57.10648 -11.1822130780055
       0.013      370    4143.1373   -11.182213 4.8623099e-13 3.1035286e-13     57.10648     57.10648    -104.8279    -104.8279 -4.8063084e-14 
4143.13727059296 57.10648 -11.1819579247279
       0.014      371    4143.1373   -11.181958 4.6080189e-13 4.2431747e-13     57.10648     57.10648   -104.82772   -104.82772 3.7886385e-15 
4143.13727059296 57.10648 -11.1816779169551
       0.015      372    4143.1373   -11.181678 4.984433e-13 6.2034688e-14     57.10648     57.10648   -104.82752   -104.82752 -6.1377593e-14 
4143.13727059296 57.10648 -11.181373241245
       0.016      373    4143.1373   -11.181373 2.8523527e-13 3.8621556e-13     57.10648     57.10648   -104.82729   -104.82729 3.840742e-14 
4143.13727059296 57.10648 -11.1810441001013
       0.017      374    4143.1373   -11.181044 6.982152e-13 2.1624879e-13     57.10648     57.10648   -104.82706   -104.82706 -1.3850538e-13 
4143.13727059296 57.10648 -11.1806907116658
       0.018      375    4143.1373   -11.180691 4.6846903e-13 4.3485772e-13     57.10648     57.10648    -104.8268    -104.8268 -2.8371007e-14 
4143.13727059296 57.10648 -11.1803133094573
       0.019      376    4143.1373   -11.180313 5.1930679e-13 3.4367692e-13     57.10648     57.10648   -104.82653   -104.82653 -1.0338174e-13 
4143.13727059296 57.10648 -11.1799121420552
        0.02      377    4143.1373   -11.179912 5.9474576e-13 3.5819784e-13     57.10648     57.10648   -104.82623   -104.82623 2.1651081e-14 
4143.13727059296 57.10648 -11.1794874728018
       0.021      378    4143.1373   -11.179487 6.2315433e-13  2.67144e-13     57.10648     57.10648   -104.82593   -104.82593 3.7778362e-15 
4143.13727059296 57.10648 -11.1790395794316
       0.022      379    4143.1373    -11.17904 5.802439e-13 3.8393231e-13     57.10648     57.10648    -104.8256    -104.8256  5.54071e-14 
4143.13727059296 57.10648 -11.1785687537107
       0.023      380    4143.1373   -11.178569 5.4345468e-13 2.3020022e-13     57.10648     57.10648   -104.82526   -104.82526 -3.6388723e-14 
4143.13727059296 57.10648 -11.1780753010744
       0.024      381    4143.1373   -11.178075 4.8256412e-13 3.3793923e-14     57.10648     57.10648   -104.82491   -104.82491 -5.2913886e-14 
4143.13727059296 57.10648 -11.1775595402307
       0.025      382    4143.1373    -11.17756 5.671423e-13 2.1209424e-13     57.10648     57.10648   -104.82454   -104.82454 -4.7820546e-15 
4143.13727059296 57.10648 -11.1770218027291
       0.026      383    4143.1373   -11.177022 4.7608444e-13 2.7072827e-13     57.10648     57.10648   -104.82415   -104.82415 5.8310491e-14 
4143.13727059296 57.10648 -11.1764624325425
       0.027      384    4143.1373   -11.176462 4.6940072e-13 1.3267529e-13     57.10648     57.10648   -104.82375   -104.82375 -9.8222522e-14 
4143.13727059296 57.10648 -11.175881785643
       0.028      385    4143.1373   -11.175882 4.0685346e-13 3.5016163e-15     57.10648     57.10648   -104.82333   -104.82333 -9.9190875e-14 
4143.13727059296 57.10648 -11.17528022953
       0.029      386    4143.1373    -11.17528 5.5333638e-13 2.3989687e-13     57.10648     57.10648    -104.8229    -104.8229 1.3496671e-14 
4143.13727059296 57.10648 -11.1746581427572
        0.03      387    4143.1373   -11.174658 4.7112176e-13 6.7746306e-14     57.10648     57.10648   -104.82245   -104.82245 6.3311914e-15 
4143.13727059296 57.10648 -11.1740159144358
       0.031      388    4143.1373   -11.174016 5.7486741e-13 1.5640701e-13     57.10648     57.10648   -104.82199   -104.82199 -8.9538668e-14 
4143.13727059296 57.10648 -11.1733539437946
       0.032      389    4143.1373   -11.173354 4.5755869e-13 7.414375e-14     57.10648     57.10648   -104.82152   -104.82152 6.4640399e-14 
4143.13727059296 57.10648 -11.1726726396147
       0.033      390    4143.1373   -11.172673 5.2056005e-13 2.1016344e-13     57.10648     57.10648   -104.82103   -104.82103 -6.742529e-15 
4143.13727059296 57.10648 -11.1719724197335
       0.034      391    4143.1373   -11.171972 4.6570003e-13 2.5501497e-13     57.10648     57.10648   -104.82053   -104.82053 -3.2605251e-14 
4143.13727059296 57.10648 -11.1712537105368
       0.035      392    4143.1373   -11.171254 4.7134588e-13 8.7098417e-14     57.10648     57.10648   -104.82002   -104.82002 5.674113e-14 
4143.13727059296 57.10648 -11.1705169463991
       0.036      393    4143.1373   -11.170517 4.5115206e-13 1.8439883e-13     57.10648     57.10648    -104.8195    -104.8195 3.7164359e-14 
4143.13727059296 57.10648 -11.1697625691584
       0.037      394    4143.1373   -11.169763 3.0603304e-13 2.1534246e-13     57.10648     57.10648   -104.81896   -104.81896 2.132135e-14 
4143.13727059296 57.10648 -11.1689910275616
       0.038      395    4143.1373   -11.168991 3.3823925e-13 3.0151975e-13     57.10648     57.10648   -104.81842   -104.81842 -1.7457754e-14 
4143.13727059296 57.10648 -11.1682027767084
       0.039      396    4143.1373   -11.168203 3.2904629e-13 3.3941466e-13     57.10648     57.10648   -104.81786   -104.81786 1.1822149e-13 
4143.13727059296 57.10648 -11.1673982774953
        0.04      397    4143.1373   -11.167398 3.9968259e-13 7.3046749e-14     57.10648     57.10648   -104.81729   -104.81729 1.2740392e-14 
4143.13727059296 57.10648 -11.1665779960347
       0.041      398    4143.1373   -11.166578 3.2751583e-13 2.0742346e-13     57.10648     57.10648   -104.81671   -104.81671 6.5495184e-14 
4143.13727059296 57.10648 -11.1657424031192
       0.042      399    4143.1373   -11.165742 4.370484e-13 3.0864059e-13     57.10648     57.10648   -104.81613   -104.81613 1.6996218e-13 
4143.96598091535 57.10648 -11.1626592184983
       0.043      400     4143.966   -11.162659 4.2179956e-13 2.2330392e-13     57.10648     57.10648   -104.79457   -104.79457 4.5004008e-14 
4143.96598091535 57.10648 -162.27297367959
       0.044      401     4143.966   -162.27297 4.7755466e-13 -4.995642e-14     57.10648     57.10648   -194.83062   -194.83062 -5.3939047e-15 
4143.96598091535 57.10648 -162.271749608833
       0.045      402     4143.966   -162.27175 4.5869226e-13 -6.0624483e-14     57.10648     57.10648   -194.82975   -194.82975 -7.2730087e-15 
4143.96598091535 57.10648 -162.270167889574
       0.046      403     4143.966   -162.27017 5.3019063e-13 6.6861707e-14     57.10648     57.10648   -194.82863   -194.82863 2.311548e-14 
4143.96598091535 57.10648 -162.268229476208
       0.047      404     4143.966   -162.26823 4.2960584e-13 6.9090854e-15     57.10648     57.10648   -194.82725   -194.82725 1.0774228e-13 
4143.96598091535 57.10648 -162.265935556771
       0.048      405     4143.966   -162.26594 4.960576e-13 3.8628464e-15     57.10648     57.10648   -194.82561   -194.82561 -3.9126481e-14 
4143.96598091535 57.10648 -162.263287551449
       0.049      406     4143.966   -162.26329 3.0592774e-13 1.6177399e-13     57.10648     57.10648   -194.82372   -194.82372 2.8162726e-14 
4143.96598091535 57.10648 -162.260287110705
        0.05      407     4143.966   -162.26029 4.8896951e-13 8.0798455e-14     57.10648     57.10648   -194.82157   -194.82157 1.3252476e-13 
4143.96598091535 57.10648 -162.256936113227
       0.051      408     4143.966   -162.25694 2.1063012e-13 1.6502663e-13     57.10648     57.10648   -194.81917   -194.81917 2.2678433e-14 
4143.96598091535 57.10648 -162.253236663456
       0.052      409     4143.966   -162.25324 4.6235224e-13 1.7215415e-13     57.10648     57.10648   -194.81652   -194.81652 -5.9734975e-14 
4143.96598091535 57.10648 -162.249191088879
       0.053      410     4143.966   -162.24919 3.3755926e-13 2.456721e-14     57.10648     57.10648   -194.81363   -194.81363 9.1120977e-14 
4143.96598091535 57.10648 -162.244801937027
       0.054      411     4143.966    -162.2448 4.0066243e-13 7.5785862e-14     57.10648     57.10648   -194.81048   -194.81048 -2.6906215e-14 
4143.96598091535 57.10648 -162.240071972182
       0.055      412     4143.966   -162.24007 4.5164857e-13 2.955508e-15     57.10648     57.10648   -194.80709   -194.80709 1.1523804e-13 
4143.96598091535 57.10648 -162.235004171798
       0.056      413     4143.966     -162.235 2.8580968e-13 1.8157769e-13     57.10648     57.10648   -194.80346   -194.80346 1.8091288e-14 
4143.96598091535 57.10648 -162.229601722665
       0.057      414     4143.966    -162.2296 3.3660981e-13 2.8983667e-13     57.10648     57.10648   -194.79959   -194.79959 3.6644923e-14 
4143.96598091535 57.10648 -162.223868016795
       0.058      415     4143.966   -162.22387 3.9308137e-13 3.6006397e-13     57.10648     57.10648   -194.79549   -194.79549 -1.7212324e-13 
4143.96598091535 57.10648 -162.217806647037
       0.059      416     4143.966   -162.21781 4.2368627e-13 2.2576179e-13     57.10648     57.10648   -194.79115   -194.79115 6.4954447e-14 
4143.96598091535 57.10648 -162.211421402449
        0.06      417     4143.966   -162.21142 2.7342477e-13 2.0908838e-13     57.10648     57.10648   -194.78659   -194.78659 -9.3520599e-14 
4143.96598091535 57.10648 -162.204716263447
       0.061      418     4143.966   -162.20472 1.9711538e-13 1.1747497e-13     57.10648     57.10648   -194.78179   -194.78179 -5.7024045e-14 
4143.96598091535 57.10648 -162.197695396677
       0.062      419     4143.966    -162.1977 2.8313682e-13 1.8291196e-13     57.10648     57.10648   -194.77678   -194.77678 2.5642402e-14 
4143.96598091535 57.10648 -162.190363149702
       0.063      420     4143.966   -162.19036 1.6997984e-13 5.0448988e-14     57.10648     57.10648   -194.77155   -194.77155 3.9928639e-14 
4143.96598091535 57.10648 -162.182724045394
       0.064      421     4143.966   -162.18272 3.945621e-13 1.4882787e-13     57.10648     57.10648    -194.7661    -194.7661 1.7016683e-13 
4143.96598091535 57.10648 -162.174782776225
       0.065      422     4143.966   -162.17478 3.7639228e-13 1.1596315e-13     57.10648     57.10648   -194.76044   -194.76044 1.5483595e-14 
4143.96598091535 57.10648 -162.166544198255
       0.066      423     4143.966   -162.16654 2.2300897e-13 2.9610495e-14     57.10648     57.10648   -194.75458   -194.75458 2.1237156e-13 
4143.96598091535 57.10648 -162.158013325006
       0.067      424     4143.966   -162.15801 2.2313035e-13 2.5448378e-13     57.10648     57.10648   -194.74851   -194.74851 2.8838619e-14 
4143.96598091535 57.10648 -162.149195321083
       0.068      425     4143.966    -162.1492 1.8056499e-13 2.0693201e-13     57.10648     57.10648   -194.74225   -194.74225 1.7978585e-13 
4143.96598091535 57.10648 -162.140095495698
       0.069      426     4143.966    -162.1401 2.2129872e-13 2.1676728e-13     57.10648     57.10648   -194.73579   -194.73579 -4.4085707e-14 
4143.96598091535 57.10648 -162.130719295964
        0.07      427     4143.966   -162.13072 1.7236806e-13 1.1496121e-13     57.10648     57.10648   -194.72915   -194.72915 -5.7364134e-14 
4143.96598091535 57.10648 -162.121072300111
       0.071      428     4143.966   -162.12107 1.109248e-13 2.9225268e-13     57.10648     57.10648   -194.72232   -194.72232 7.6509406e-14 
4143.96598091535 57.10648 -162.11116021048
       0.072      429     4143.966   -162.11116 1.5531503e-13 3.6907418e-13     57.10648     57.10648   -194.71532   -194.71532 -9.1200869e-15 
4143.96598091535 57.10648 -162.100988846476
       0.073      430     4143.966   -162.10099 1.0022427e-14 2.3136305e-13     57.10648     57.10648   -194.70814   -194.70814 3.9583032e-16 
4143.96598091535 57.10648 -162.090564137352
       0.074      431     4143.966   -162.09056 8.688965e-14 3.1994342e-13     57.10648     57.10648   -194.70079   -194.70079 -1.0318509e-13 
4143.96598091535 57.10648 -162.079892114892
       0.075      432     4143.966   -162.07989 -3.558204e-14 1.757017e-13     57.10648     57.10648   -194.69328   -194.69328 4.3064646e-14 
4143.96598091535 57.10648 -162.06897890605
       0.076      433     4143.966   -162.06898 9.6045921e-14 2.9598551e-13     57.10648     57.10648   -194.68561   -194.68561 4.0744349e-14 
4143.96598091535 57.10648 -162.057830725393
       0.077      434     4143.966   -162.05783 -2.1713715e-14 2.7912782e-13     57.10648     57.10648   -194.67778   -194.67778 -7.3294243e-14 
4143.96598091535 57.10648 -162.046453867585
       0.078      435     4143.966   -162.04645 1.6063776e-13 2.6807403e-13     57.10648     57.10648   -194.66981   -194.66981 -1.883505e-14 
4143.96598091535 57.10648 -162.034854699798
       0.079      436     4143.966   -162.03485 5.4282898e-14 2.1236388e-13     57.10648     57.10648    -194.6617    -194.6617 -1.1307369e-14 
4143.96598091535 57.10648 -162.023039654045
        0.08      437     4143.966   -162.02304 -1.4179372e-13 2.0047543e-13     57.10648     57.10648   -194.65345   -194.65345 -4.6082654e-14 
4143.96598091535 57.10648 -162.011015219503
       0.081      438     4143.966   -162.01102 8.3816593e-14 2.0403161e-13     57.10648     57.10648   -194.64507   -194.64507 -2.0259866e-13 
4143.96598091535 57.10648 -161.998787934786
       0.082      439     4143.966   -161.99879 1.8656983e-13 1.3704563e-13     57.10648     57.10648   -194.63657   -194.63657 -3.583685e-14 
4144.79485699637 57.10648 -161.953970346883
       0.083      440    4144.7949   -161.95397 2.0947873e-13 8.590476e-14     57.10648     57.10648   -194.58902   -194.58902 -1.3982361e-13 
4144.79485699637 57.10648 -313.189791777477
       0.084      441    4144.7949   -313.18979 1.179962e-13 2.3922659e-13     57.10648     57.10648   -284.59188   -284.59188 -5.1465811e-15 
4144.79485699637 57.10648 -313.17663724303
       0.085      442    4144.7949   -313.17664 2.0952289e-13 2.120691e-13     57.10648     57.10648   -284.58279   -284.58279 -7.2868016e-14 
4144.79485699637 57.10648 -313.162961690294
       0.086      443    4144.7949   -313.16296 3.2984562e-13 1.6831114e-13     57.10648     57.10648   -284.57334   -284.57334 -7.3517937e-14 
4144.79485699637 57.10648 -313.148772289945
       0.087      444    4144.7949   -313.14877 2.8827118e-13 3.2792606e-13     57.10648     57.10648   -284.56354   -284.56354 5.6094084e-14 
4144.79485699637 57.10648 -313.134076448306
       0.088      445    4144.7949   -313.13408 8.7020804e-14 3.485517e-13     57.10648     57.10648    -284.5534    -284.5534 1.0334793e-13 
4144.79485699637 57.10648 -313.118881798724
       0.089      446    4144.7949   -313.11888 3.9746617e-13 3.6198918e-13     57.10648     57.10648   -284.54292   -284.54292 4.0836278e-14 
4144.79485699637 57.10648 -313.10319619272
        0.09      447    4144.7949    -313.1032 3.0657387e-13 4.0343838e-13     57.10648     57.10648   -284.53212   -284.53212 8.5534375e-14 
4144.79485699637 57.10648 -313.087027690874
       0.091      448    4144.7949   -313.08703 4.0353623e-13 3.0244558e-13     57.10648     57.10648   -284.52099   -284.52099 1.0573436e-13 
4144.79485699637 57.10648 -313.070384553569
       0.092      449    4144.7949   -313.07038 2.9811412e-13 2.927859e-13     57.10648     57.10648   -284.50955   -284.50955 9.9784163e-14 
4144.79485699637 57.10648 -313.053275231471
       0.093      450    4144.7949   -313.05328 3.0556404e-13 4.5845644e-13     57.10648     57.10648    -284.4978    -284.4978 1.9781575e-14 
4144.79485699637 57.10648 -313.035708355892
       0.094      451    4144.7949   -313.03571 3.8976131e-13 3.1225006e-13     57.10648     57.10648   -284.48574   -284.48574 7.2337539e-14 
4144.79485699637 57.10648 -313.017692728966
       0.095      452    4144.7949   -313.01769 2.2842488e-13 3.9158133e-13     57.10648     57.10648    -284.4734    -284.4734 5.9013687e-14 
4144.79485699637 57.10648 -312.999237313644
       0.096      453    4144.7949   -312.99924 2.1965522e-13 2.3874795e-13     57.10648     57.10648   -284.46076   -284.46076 -2.3711915e-14 
4144.79485699637 57.10648 -312.980351223607
       0.097      454    4144.7949   -312.98035 2.0771274e-13 3.3154394e-13     57.10648     57.10648   -284.44785   -284.44785 5.6344221e-14 
4144.79485699637 57.10648 -312.961043713014
       0.098      455    4144.7949   -312.96104 5.0487282e-13 2.7866778e-13     57.10648     57.10648   -284.43467   -284.43467 -7.656568e-14 
4144.79485699637 57.10648 -312.94132416621
       0.099      456    4144.7949   -312.94132 4.9599273e-13 3.1328716e-13     57.10648     57.10648   -284.42122   -284.42122 4.0998088e-14 
4144.79485699637 57.10648 -312.921202087253
         0.1      457    4144.7949    -312.9212 4.1286805e-13 3.5615858e-13     57.10648     57.10648   -284.40752   -284.40752 -2.2333492e-14 
4144.79485699637 57.10648 -312.900687089464
       0.101      458    4144.7949   -312.90069 4.2306816e-13 3.7207405e-13     57.10648     57.10648   -284.39356   -284.39356 -3.2338486e-14 
4144.79485699637 57.10648 -312.879788884848
       0.102      459    4144.7949   -312.87979 4.2458646e-13 3.5506445e-13     57.10648     57.10648   -284.37937   -284.37937 -1.2709074e-13 
4144.79485699637 57.10648 -312.858517273538
       0.103      460    4144.7949   -312.85852 4.0988705e-13 3.8467718e-13     57.10648     57.10648   -284.36494   -284.36494 -1.0990243e-13 
4144.79485699637 57.10648 -312.836882133123
       0.104      461    4144.7949   -312.83688 2.4917511e-13 2.8232125e-13     57.10648     57.10648   -284.35029   -284.35029 3.0062507e-14 
4144.79485699637 57.10648 -312.81489340806
       0.105      462    4144.7949   -312.81489 4.6052812e-13 4.7117186e-13     57.10648     57.10648   -284.33543   -284.33543 -1.2728866e-13 
4144.79485699637 57.10648 -312.792561099033
       0.106      463    4144.7949   -312.79256 2.183353e-13 4.0591258e-13     57.10648     57.10648   -284.32035   -284.32035 -1.0993873e-14 
4144.79485699637 57.10648 -312.769895252348
       0.107      464    4144.7949    -312.7699 4.0191405e-13 5.8954145e-13     57.10648     57.10648   -284.30508   -284.30508 -5.9826551e-14 
4144.79485699637 57.10648 -312.746905949354
       0.108      465    4144.7949   -312.74691 3.8290567e-13 4.9086271e-13     57.10648     57.10648   -284.28961   -284.28961 5.6660611e-15 
4144.79485699637 57.10648 -312.723603295964
       0.109      466    4144.7949    -312.7236 4.521515e-13 5.2086217e-13     57.10648     57.10648   -284.27396   -284.27396 5.1303428e-14 
4144.79485699637 57.10648 -312.699997412115
        0.11      467    4144.7949       -312.7 4.6230268e-13 4.3802482e-13     57.10648     57.10648   -284.25813   -284.25813 8.8948628e-14 
4144.79485699637 57.10648 -312.676098421452
       0.111      468    4144.7949    -312.6761 4.4569845e-13 5.1760165e-13     57.10648     57.10648   -284.24213   -284.24213 1.6136404e-14 
4144.79485699637 57.10648 -312.651916441017
       0.112      469    4144.7949   -312.65192 4.6663311e-13 5.1864299e-13     57.10648     57.10648   -284.22598   -284.22598 3.0529276e-14 
[...]
4161.40723903861 57.10648 -3237.86732492858
       0.901     1258    4161.4072   -3237.8673 -3.5717386e-13 -4.1520818e-13     57.10648     57.10648   -2002.5117   -2002.5117 -9.4088915e-14 
4161.40723903861 57.10648 -3237.58295968336
       0.902     1259    4161.4072    -3237.583 -5.2686138e-13 -4.6377211e-13     57.10648     57.10648   -2002.3438   -2002.3438 -8.7474582e-14 
4161.40723903861 57.10648 -3237.29825661068
       0.903     1260    4161.4072   -3237.2983 -5.5256649e-13 -4.9580169e-13     57.10648     57.10648   -2002.1756   -2002.1756 -2.3310209e-15 
4161.40723903861 57.10648 -3237.01322473504
       0.904     1261    4161.4072   -3237.0132 -5.2204616e-13 -5.3807569e-13     57.10648     57.10648   -2002.0073   -2002.0073 -1.6277382e-13 
4161.40723903861 57.10648 -3236.72787307977
       0.905     1262    4161.4072   -3236.7279 -5.5519336e-13 -3.031602e-13     57.10648     57.10648   -2001.8388   -2001.8388 -3.564753e-14 
4161.40723903861 57.10648 -3236.4422106643
       0.906     1263    4161.4072   -3236.4422 -4.3170215e-13 -3.6251367e-13     57.10648     57.10648   -2001.6701   -2001.6701 -1.1732337e-13 
4161.40723903861 57.10648 -3236.15624649055
       0.907     1264    4161.4072   -3236.1562 -5.8440978e-13 -5.0444748e-13     57.10648     57.10648   -2001.5012   -2001.5012 -5.3184092e-14 
4161.40723903861 57.10648 -3235.86998954696
       0.908     1265    4161.4072     -3235.87 -4.6722743e-13 -5.6318606e-13     57.10648     57.10648   -2001.3322   -2001.3322 8.415861e-14 
4161.40723903861 57.10648 -3235.58344879826
       0.909     1266    4161.4072   -3235.5834 -4.4088321e-13 -3.4581028e-13     57.10648     57.10648    -2001.163    -2001.163 3.0918029e-15 
4161.40723903861 57.10648 -3235.29663317356
        0.91     1267    4161.4072   -3235.2966 -5.0486012e-13 -5.1163468e-13     57.10648     57.10648   -2000.9936   -2000.9936 2.1230725e-14 
4161.40723903861 57.10648 -3235.00955156231
       0.911     1268    4161.4072   -3235.0096 -5.8758005e-13 -4.1799323e-13     57.10648     57.10648   -2000.8241   -2000.8241 8.7762082e-14 
4161.40723903861 57.10648 -3234.72221280851
       0.912     1269    4161.4072   -3234.7222 -4.9928749e-13 -4.1569743e-13     57.10648     57.10648   -2000.6545   -2000.6545 5.8264338e-14 
4161.40723903861 57.10648 -3234.43462570829
       0.913     1270    4161.4072   -3234.4346 -5.423778e-13 -4.3985803e-13     57.10648     57.10648   -2000.4847   -2000.4847 -3.3848308e-14 
4161.40723903861 57.10648 -3234.14679900074
       0.914     1271    4161.4072   -3234.1468 -7.0288338e-13 -3.4793234e-13     57.10648     57.10648   -2000.3148   -2000.3148 -1.1532887e-14 
4161.40723903861 57.10648 -3233.85874136306
       0.915     1272    4161.4072   -3233.8587 -5.6546708e-13 -2.0768005e-13     57.10648     57.10648   -2000.1447   -2000.1447 -4.2627513e-14 
4161.40723903861 57.10648 -3233.57046140404
       0.916     1273    4161.4072   -3233.5705 -5.4813055e-13 -1.0328502e-13     57.10648     57.10648   -1999.9745   -1999.9745 -1.1457697e-13 
4161.40723903861 57.10648 -3233.28196765718
       0.917     1274    4161.4072    -3233.282 -3.305576e-13 -1.9692162e-13     57.10648     57.10648   -1999.8043   -1999.8043 1.0460028e-13 
4161.40723903861 57.10648 -3232.99326857893
       0.918     1275    4161.4072   -3232.9933 -4.6704221e-13 -3.0685841e-13     57.10648     57.10648   -1999.6339   -1999.6339 8.3677914e-14 
4161.40723903861 57.10648 -3232.70437253944
       0.919     1276    4161.4072   -3232.7044 -5.9670811e-13 -3.2786911e-13     57.10648     57.10648   -1999.4634   -1999.4634 1.1901422e-13 
4161.40723903861 57.10648 -3232.41528781693
        0.92     1277    4161.4072   -3232.4153 -7.8528466e-13 -1.6931279e-13     57.10648     57.10648   -1999.2929   -1999.2929 6.9017987e-14 
4161.40723903861 57.10648 -3232.12602259476
       0.921     1278    4161.4072    -3232.126 -4.8946331e-13 -2.318377e-13     57.10648     57.10648   -1999.1222   -1999.1222 -8.2638631e-14 
4161.40723903861 57.10648 -3231.83658495656
       0.922     1279    4161.4072   -3231.8366 -5.7967015e-13 -7.4865467e-14     57.10648     57.10648   -1998.9515   -1998.9515 2.1014511e-14 
4162.23960372011 57.10648 -3230.90073810679
       0.923     1280    4162.2396   -3230.9007 -4.4635656e-13 -1.3092468e-13     57.10648     57.10648   -1998.3809   -1998.3809 -9.5526348e-14 
4162.23960372011 57.10648 -3384.61925532739
       0.924     1281    4162.2396   -3384.6193 -4.1330669e-13 -9.1181173e-15     57.10648     57.10648   -2087.7013   -2087.7013 9.4679796e-14 
4162.23960372011 57.10648 -3384.32868665651
       0.925     1282    4162.2396   -3384.3287 -6.454826e-13 -1.1619529e-13     57.10648     57.10648   -2087.5302   -2087.5302 6.2314157e-15 
4162.23960372011 57.10648 -3384.03763364634
       0.926     1283    4162.2396   -3384.0376 -4.8210278e-13 2.0298539e-13     57.10648     57.10648   -2087.3587   -2087.3587 1.0099508e-13 
4162.23960372011 57.10648 -3383.74610430187
       0.927     1284    4162.2396   -3383.7461 -5.200415e-13 1.2002845e-13     57.10648     57.10648    -2087.187    -2087.187 2.9165228e-14 
4162.23960372011 57.10648 -3383.45410672853
       0.928     1285    4162.2396   -3383.4541 -4.5528199e-13 1.0731373e-13     57.10648     57.10648    -2087.015    -2087.015 -4.5762749e-14 
4162.23960372011 57.10648 -3383.16164912796
       0.929     1286    4162.2396   -3383.1616 -3.4859696e-13 1.3121793e-13     57.10648     57.10648   -2086.8427   -2086.8427 1.0402366e-13 
4162.23960372011 57.10648 -3382.86873979198
        0.93     1287    4162.2396   -3382.8687 -3.7375283e-13 1.9074435e-13     57.10648     57.10648     -2086.67     -2086.67 -8.1637164e-14 
4162.23960372011 57.10648 -3382.57538709463
       0.931     1288    4162.2396   -3382.5754 -4.1331702e-13 1.5243317e-13     57.10648     57.10648   -2086.4972   -2086.4972 8.4186766e-14 
4162.23960372011 57.10648 -3382.28159949279
       0.932     1289    4162.2396   -3382.2816 -2.6820832e-13 1.1792557e-13     57.10648     57.10648    -2086.324    -2086.324 -9.081231e-14 
4162.23960372011 57.10648 -3381.987385516
       0.933     1290    4162.2396   -3381.9874 -1.5854175e-13 2.9652243e-13     57.10648     57.10648   -2086.1506   -2086.1506 -1.2121984e-13 
4162.23960372011 57.10648 -3381.69275376254
       0.934     1291    4162.2396   -3381.6928 -4.662464e-13 1.6129923e-13     57.10648     57.10648   -2085.9769   -2085.9769 -3.9866069e-14 
4162.23960372011 57.10648 -3381.397712892
       0.935     1292    4162.2396   -3381.3977 -4.0606585e-13 2.1900008e-13     57.10648     57.10648   -2085.8029   -2085.8029 -1.1339184e-14 
4162.23960372011 57.10648 -3381.10227162151
       0.936     1293    4162.2396   -3381.1023 -3.3827436e-13 2.0924893e-13     57.10648     57.10648   -2085.6287   -2085.6287 6.5134358e-14 
4162.23960372011 57.10648 -3380.80643871924
       0.937     1294    4162.2396   -3380.8064 -3.451119e-13 1.2035527e-13     57.10648     57.10648   -2085.4543   -2085.4543 -5.3027197e-14 
4162.23960372011 57.10648 -3380.51022300302
       0.938     1295    4162.2396   -3380.5102 -3.4811718e-13 3.4340862e-13     57.10648     57.10648   -2085.2796   -2085.2796 3.8596165e-14 
4162.23960372011 57.10648 -3380.21363332488
       0.939     1296    4162.2396   -3380.2136 -3.4852383e-13 3.7758081e-13     57.10648     57.10648   -2085.1047   -2085.1047 -1.7812943e-13 
4162.23960372011 57.10648 -3379.91667856112
        0.94     1297    4162.2396   -3379.9167 -3.3020688e-13 2.7280471e-13     57.10648     57.10648   -2084.9296   -2084.9296 1.4709975e-13 
4162.23960372011 57.10648 -3379.61936762091
       0.941     1298    4162.2396   -3379.6194 -4.18099e-13 3.4748755e-13     57.10648     57.10648   -2084.7543   -2084.7543 1.3016304e-13 
4162.23960372011 57.10648 -3379.32170943044
       0.942     1299    4162.2396   -3379.3217 -2.9121091e-13 5.062362e-13     57.10648     57.10648   -2084.5787   -2084.5787 6.863058e-14 
4162.23960372011 57.10648 -3379.02371293449
       0.943     1300    4162.2396   -3379.0237 -4.5009374e-13 4.9797263e-13     57.10648     57.10648    -2084.403    -2084.403 -7.4435379e-14 
4162.23960372011 57.10648 -3378.72538708644
       0.944     1301    4162.2396   -3378.7254 -3.2213361e-13 5.8987603e-13     57.10648     57.10648    -2084.227    -2084.227 4.4368068e-14 
4162.23960372011 57.10648 -3378.42674084027
       0.945     1302    4162.2396   -3378.4267 -3.1798513e-13 3.7240156e-13     57.10648     57.10648   -2084.0509   -2084.0509 -6.1410422e-14 
4162.23960372011 57.10648 -3378.12778314432
       0.946     1303    4162.2396   -3378.1278 -4.1607078e-13 3.9504983e-13     57.10648     57.10648   -2083.8745   -2083.8745  4.98943e-14 
4162.23960372011 57.10648 -3377.82852293656
       0.947     1304    4162.2396   -3377.8285 -3.5519927e-13 3.5829338e-13     57.10648     57.10648    -2083.698    -2083.698 -7.8701136e-14 
4162.23960372011 57.10648 -3377.5289691379
       0.948     1305    4162.2396    -3377.529 -1.4435325e-13 4.0852152e-13     57.10648     57.10648   -2083.5214   -2083.5214 -2.0610255e-14 
4162.23960372011 57.10648 -3377.22913064797
       0.949     1306    4162.2396   -3377.2291 -2.7264583e-13 4.1203793e-13     57.10648     57.10648   -2083.3445   -2083.3445 -6.0465784e-15 
4162.23960372011 57.10648 -3376.92901633204
        0.95     1307    4162.2396    -3376.929 -3.1477517e-13 5.5988619e-13     57.10648     57.10648   -2083.1675   -2083.1675 1.1495497e-15 
4162.23960372011 57.10648 -3376.62863502283
       0.951     1308    4162.2396   -3376.6286 -4.204771e-13 4.5660767e-13     57.10648     57.10648   -2082.9904   -2082.9904 -5.6829689e-14 
4162.23960372011 57.10648 -3376.32799551199
       0.952     1309    4162.2396    -3376.328 -2.7085738e-13 4.6212225e-13     57.10648     57.10648   -2082.8131   -2082.8131 3.6067658e-14 
4162.23960372011 57.10648 -3376.02710654305
       0.953     1310    4162.2396   -3376.0271 -4.3249832e-13 5.8118749e-13     57.10648     57.10648   -2082.6357   -2082.6357 1.958281e-14 
4162.23960372011 57.10648 -3375.72597680601
       0.954     1311    4162.2396    -3375.726 -3.5166317e-13 6.0431592e-13     57.10648     57.10648   -2082.4581   -2082.4581 -1.0921996e-13 
4162.23960372011 57.10648 -3375.4246149324
       0.955     1312    4162.2396   -3375.4246 -3.1735281e-13 7.0688614e-13     57.10648     57.10648   -2082.2804   -2082.2804 1.4665779e-13 
4162.23960372011 57.10648 -3375.12302948837
       0.956     1313    4162.2396    -3375.123 -2.4800204e-13 6.8093939e-13     57.10648     57.10648   -2082.1026   -2082.1026 -1.3957163e-13 
4162.23960372011 57.10648 -3374.82122896687
       0.957     1314    4162.2396   -3374.8212 -3.9047382e-13 7.7619867e-13     57.10648     57.10648   -2081.9247   -2081.9247 -1.6838697e-14 
4162.23960372011 57.10648 -3374.51922178714
       0.958     1315    4162.2396   -3374.5192 -3.3730397e-13 7.2147103e-13     57.10648     57.10648   -2081.7466   -2081.7466 -5.52449e-14 
4162.23960372011 57.10648 -3374.21701628691
       0.959     1316    4162.2396    -3374.217 -5.4050793e-13 7.1900062e-13     57.10648     57.10648   -2081.5685   -2081.5685 -1.1893218e-13 
4162.23960372011 57.10648 -3373.91462071593
        0.96     1317    4162.2396   -3373.9146 -3.727196e-13 7.1407018e-13     57.10648     57.10648   -2081.3903   -2081.3903 -2.9831882e-14 
4162.23960372011 57.10648 -3373.61204323147
       0.961     1318    4162.2396    -3373.612 -2.4674536e-13 6.9584077e-13     57.10648     57.10648    -2081.212    -2081.212 -8.3878382e-14 
4162.23960372011 57.10648 -3373.30929189331
       0.962     1319    4162.2396   -3373.3093 -2.7370558e-13 7.4390819e-13     57.10648     57.10648   -2081.0336   -2081.0336 -7.504765e-15 
4163.0721348912 57.10648 -3372.33184083811
       0.963     1320    4163.0721   -3372.3318 -4.1551512e-13 8.1572958e-13     57.10648     57.10648   -2080.4389   -2080.4389 7.4161733e-14 
4163.0721348912 57.10648 -3526.16237194588
       0.964     1321    4163.0721   -3526.1624 -3.8673195e-13 8.1444613e-13     57.10648     57.10648   -2169.7268   -2169.7268 -8.654429e-14 
4163.0721348912 57.10648 -3525.85847079166
       0.965     1322    4163.0721   -3525.8585 -4.1976766e-13 7.4728815e-13     57.10648     57.10648    -2169.548    -2169.548 -2.6842542e-14 
4163.0721348912 57.10648 -3525.55408387418
       0.966     1323    4163.0721   -3525.5541 -3.9140365e-13 7.4428815e-13     57.10648     57.10648   -2169.3689   -2169.3689 1.1242813e-13 
4163.0721348912 57.10648 -3525.2492191944
       0.967     1324    4163.0721   -3525.2492 -4.0029821e-13 9.1545055e-13     57.10648     57.10648   -2169.1895   -2169.1895 -3.8633264e-14 
4163.0721348912 57.10648 -3524.94388485733
       0.968     1325    4163.0721   -3524.9439 -4.6670065e-13 9.8883318e-13     57.10648     57.10648   -2169.0098   -2169.0098 -1.6042268e-13 
4163.0721348912 57.10648 -3524.63808906747
       0.969     1326    4163.0721   -3524.6381 -4.3621972e-13 9.8826835e-13     57.10648     57.10648   -2168.8299   -2168.8299 1.0236032e-13 
4163.0721348912 57.10648 -3524.33184012117
        0.97     1327    4163.0721   -3524.3318 -5.64638e-13 8.8855697e-13     57.10648     57.10648   -2168.6496   -2168.6496 8.1756351e-14 
4163.0721348912 57.10648 -3524.0251464075
       0.971     1328    4163.0721   -3524.0251 -5.6783631e-13 8.2010023e-13     57.10648     57.10648    -2168.469    -2168.469 1.8317798e-14 
4163.0721348912 57.10648 -3523.71801639539
       0.972     1329    4163.0721    -3523.718 -5.3653489e-13 8.6981897e-13     57.10648     57.10648   -2168.2882   -2168.2882 1.5189489e-13 
4163.0721348912 57.10648 -3523.4104586312
       0.973     1330    4163.0721   -3523.4105 -6.1062621e-13 1.0865635e-12     57.10648     57.10648   -2168.1071   -2168.1071 6.4201402e-14 
4163.0721348912 57.10648 -3523.10248173283
       0.974     1331    4163.0721   -3523.1025 -4.8975636e-13 1.1052882e-12     57.10648     57.10648   -2167.9257   -2167.9257 7.1335916e-14 
4163.0721348912 57.10648 -3522.79409438857
       0.975     1332    4163.0721   -3522.7941 -4.9019803e-13 1.087155e-12     57.10648     57.10648   -2167.7441   -2167.7441 4.6893269e-14 
4163.0721348912 57.10648 -3522.48530534986
       0.976     1333    4163.0721   -3522.4853 -7.1268375e-13 1.1441141e-12     57.10648     57.10648   -2167.5622   -2167.5622 -3.4073485e-14 
4163.0721348912 57.10648 -3522.17612340253
       0.977     1334    4163.0721   -3522.1761 -6.3598387e-13 9.773105e-13     57.10648     57.10648   -2167.3801   -2167.3801 8.3745565e-14 
4163.0721348912 57.10648 -3521.8665573916
       0.978     1335    4163.0721   -3521.8666 -4.6739881e-13 1.0605744e-12     57.10648     57.10648   -2167.1977   -2167.1977 -8.2766334e-14 
4163.0721348912 57.10648 -3521.55661620442
       0.979     1336    4163.0721   -3521.5566 -6.2450212e-13 1.1373183e-12     57.10648     57.10648   -2167.0151   -2167.0151 7.3650572e-14 
4163.0721348912 57.10648 -3521.24630876138
        0.98     1337    4163.0721   -3521.2463 -5.9252677e-13 1.0030472e-12     57.10648     57.10648   -2166.8323   -2166.8323 -1.4752022e-14 
4163.0721348912 57.10648 -3520.93564401398
       0.981     1338    4163.0721   -3520.9356 -5.5963408e-13 1.0405924e-12     57.10648     57.10648   -2166.6493   -2166.6493 -4.2803434e-14 
4163.0721348912 57.10648 -3520.62463093682
       0.982     1339    4163.0721   -3520.6246 -5.3918613e-13 1.1803448e-12     57.10648     57.10648    -2166.466    -2166.466 -9.9160745e-14 
4163.0721348912 57.10648 -3520.31327852021
       0.983     1340    4163.0721   -3520.3133 -4.318887e-13 1.210408e-12     57.10648     57.10648   -2166.2826   -2166.2826 -3.6050512e-14 
4163.0721348912 57.10648 -3520.00159576152
       0.984     1341    4163.0721   -3520.0016 -5.4067647e-13 1.182482e-12     57.10648     57.10648   -2166.0989   -2166.0989 5.2455688e-14 
4163.0721348912 57.10648 -3519.68959166834
       0.985     1342    4163.0721   -3519.6896 -5.4313729e-13 9.9564721e-13     57.10648     57.10648   -2165.9151   -2165.9151 4.4193187e-14 
4163.0721348912 57.10648 -3519.37727524284
       0.986     1343    4163.0721   -3519.3773 -4.2711266e-13 1.2064735e-12     57.10648     57.10648   -2165.7311   -2165.7311 -2.101558e-14 
4163.0721348912 57.10648 -3519.06465547728
       0.987     1344    4163.0721   -3519.0647 -5.4259277e-13 1.1700423e-12     57.10648     57.10648   -2165.5469   -2165.5469 1.2212984e-13 
4163.0721348912 57.10648 -3518.75174134971
       0.988     1345    4163.0721   -3518.7517 -6.4138473e-13 1.2121438e-12     57.10648     57.10648   -2165.3625   -2165.3625 5.7505064e-14 
4163.0721348912 57.10648 -3518.43854181673
       0.989     1346    4163.0721   -3518.4385 -6.4261896e-13 1.1059942e-12     57.10648     57.10648    -2165.178    -2165.178 1.4884814e-13 
4163.0721348912 57.10648 -3518.12506580636
        0.99     1347    4163.0721   -3518.1251 -8.0320249e-13 1.3407937e-12     57.10648     57.10648   -2164.9933   -2164.9933 -1.1725844e-14 
4163.0721348912 57.10648 -3517.81132221138
       0.991     1348    4163.0721   -3517.8113 -6.9248484e-13 1.1952221e-12     57.10648     57.10648   -2164.8084   -2164.8084 1.0791675e-13 
4163.0721348912 57.10648 -3517.49731988492
       0.992     1349    4163.0721   -3517.4973 -5.7376197e-13 1.1332444e-12     57.10648     57.10648   -2164.6234   -2164.6234 7.5821864e-14 
4163.0721348912 57.10648 -3517.18306763385
       0.993     1350    4163.0721   -3517.1831 -7.851621e-13 1.2996134e-12     57.10648     57.10648   -2164.4383   -2164.4383 -1.5774824e-14 
4163.0721348912 57.10648 -3516.86857421185
       0.994     1351    4163.0721   -3516.8686 -8.1853428e-13 1.2239622e-12     57.10648     57.10648   -2164.2531   -2164.2531 5.536416e-14 
4163.0721348912 57.10648 -3516.55384831448
       0.995     1352    4163.0721   -3516.5538 -7.1045237e-13 1.1681179e-12     57.10648     57.10648   -2164.0677   -2164.0677 -1.540867e-14 
4163.0721348912 57.10648 -3516.23889857088
       0.996     1353    4163.0721   -3516.2389 -6.0530811e-13 1.3660716e-12     57.10648     57.10648   -2163.8822   -2163.8822 2.2699349e-14 
4163.0721348912 57.10648 -3515.92373354378
       0.997     1354    4163.0721   -3515.9237 -8.912283e-13 1.1401064e-12     57.10648     57.10648   -2163.6965   -2163.6965 1.0662145e-13 
4163.0721348912 57.10648 -3515.60836171677
       0.998     1355    4163.0721   -3515.6084 -1.0221992e-12 1.2636205e-12     57.10648     57.10648   -2163.5108   -2163.5108 -1.2791335e-13 
4163.0721348912 57.10648 -3515.29279149066
       0.999     1356    4163.0721   -3515.2928 -8.7924166e-13 1.103204e-12     57.10648     57.10648    -2163.325    -2163.325 -1.4858797e-14 
4163.0721348912 57.10648 -3514.97703118038
           1     1357    4163.0721    -3514.977 -7.9719893e-13 1.2547624e-12     57.10648     57.10648   -2163.1391   -2163.1391 -1.9802327e-13 
Loop time of 35.9236 on 128 procs for 1000 steps with 360800 atoms

Performance: 2.405 ns/day, 9.979 hours/ns, 27.837 timesteps/s
94.1% CPU use with 128 MPI tasks x 1 OpenMP threads

MPI task timing breakdown:
Section |  min time  |  avg time  |  max time  |%varavg| %total
---------------------------------------------------------------
Pair    | 0.3254     | 3.2462     | 9.7596     | 212.5 |  9.04
Neigh   | 0.028546   | 0.045502   | 0.059552   |   2.3 |  0.13
Comm    | 0.12942    | 1.2782     | 3.7073     | 140.4 |  3.56
Output  | 18.329     | 18.434     | 18.439     |   0.2 | 51.31
Modify  | 2.1688     | 11.519     | 15.749     | 168.4 | 32.06
Other   |            | 1.401      |            |       |  3.90

Nlocal:        2818.75 ave        9200 max           0 min
Histogram: 88 0 0 0 0 0 0 0 1 39
Nghost:        3888.73 ave       13317 max           0 min
Histogram: 87 1 0 0 0 0 2 0 0 38
Neighs:         0.00000 ave           0 max           0 min
Histogram: 128 0 0 0 0 0 0 0 0 0
FullNghs:      472488.0 ave  1.5456e+06 max           0 min
Histogram: 88 0 0 0 0 0 0 1 0 39

Total # of neighbors = 60478400
Ave neighs/atom = 167.62306
Neighbor list builds = 12
Dangerous builds = 0

quit
