LAMMPS (29 Sep 2021 - Update 1)
KOKKOS mode is enabled (../kokkos.cpp:97)
  will use up to 2 GPU(s) per node
  using 1 OpenMP thread(s) per MPI task
package kokkos
#################################
#two psrts have to be corrected
#Vacancy >> type : Fe Fe Fe Fe Fe Fe Fe Fe Fe
#Cu      >> type : Fe Fe Fe Fe Fe Fe Fe Fe Fe Cu
#################################

variable npt_temp      equal 0.1

variable atmos        equal 1.01325                    # Atomic Mass

units       metal
atom_style  atomic
boundary p p p

#timestep .0001
timestep    0.001
#timestep    0.01
#timestep 0.1
read_data   ./Fe.lat
Reading data file ...
  orthogonal box = (0.0000000 0.0000000 0.0000000) to (459.70716 57.106480 57.106480)
  16 by 2 by 2 MPI processor grid
  reading atoms ...
  120800 atoms
  read_data CPU = 0.248 seconds

pair_style  eam/alloy
pair_coeff  * * ./FeCuNi.eam.alloy Fe Fe Fe Fe Fe Fe Fe Fe Fe
#pair_coeff  * * ./new_potential/FeCuNi.eam.alloy Fe Fe Fe Fe Cu
#mass        *4 ${mass}
#pair_style  aenet
#pair_coeff  * * v03 Fe 10sw-10sw.nn Fe Fe Fe Fe Fe
#pair_coeff  * * ./new_potential/FeCuNi.eam.alloy Fe Fe Fe Fe Cu
#mass        *4 ${mass}
mass        * 55.845
#mass        5 58.454 correct value!!!

#group naming
group source type 2
800 atoms in group source
group detector type 3
800 atoms in group detector
group edge type 5
0 atoms in group edge
group edge_buf type 7
0 atoms in group edge_buf
group buffer type 7 8 9
0 atoms in group buffer
#group longage type 9

variable s equal xcm(source,x)
variable d equal xcm(detector,x)
variable g equal xcm(edge,x)
variable t equal temp
variable p equal press
variable v equal vol
variable e equal etotal
variable i equal time
variable FIG string iranai
variable f equal fcm(detector,x)
variable l equal vcm(detector,x)

##############################################
variable rescaleSteps equal 0
variable relaxationSteps equal 0
variable initialSteps equal ${rescaleSteps}+${relaxationSteps}
variable initialSteps equal 0+${relaxationSteps}
variable initialSteps equal 0+0
##############################################

#dump fuck all atom 1 strain.dump
#dump_modify fuck scale no

thermo 1
thermo_style custom time step lx pxx pxy pxz ly lz pyy pzz pyz etotal temp vol

#fix extra all print 1 "$i $s $d $g $l $f $t $v $e $p" file outp.txt

fix nve1 all nve
minimize 1.0e-30 1.0e-30 100000 100000
WARNING: Using 'neigh_modify every 1 delay 0 check yes' setting during minimization (../min.cpp:188)
Neighbor list info ...
  update every 1 steps, delay 0 steps, check yes
  max neighbors/atom: 2000, page size: 100000
  master list distance cutoff = 7.6
  ghost atom cutoff = 7.6
  binsize = 7.6, bins = 61 8 8
  1 neighbor lists, perpetual/occasional/extra = 1 0 0
  (1) pair eam/alloy/kk, perpetual
      attributes: full, newton off, kokkos_device
      pair build: full/bin/kk/device
      stencil: full/bin/3d
      bin: kk/device
WARNING: Fixes cannot yet send exchange data in Kokkos communication, switching to classic exchange/border communication (../comm_kokkos.cpp:581)
Per MPI rank memory allocation (min/avg/max) = 1.657 | 2.446 | 2.572 Mbytes
Time Step Lx Pxx Pxy Pxz Ly Lz Pyy Pzz Pyz TotEng Temp Volume 
           0        0    459.70716    112.89898 -4.8634028e-13 -4.7017512e-13     57.10648     57.10648   -772.32509   -772.32509 2.8454361e-13   -497261.36            0      1499174 
       0.001        1    459.70716    42.568439 -3.3981379e-13 -4.2704707e-13     57.10648     57.10648   -859.88705   -859.88705 -2.9164182e-13   -497263.27            0      1499174 
       0.002        2    459.70716    22.352786 -4.9447113e-13 -6.0696814e-13     57.10648     57.10648    -876.4172    -876.4172 -6.3477488e-14   -497263.32            0      1499174 
       0.003        3    459.70716    26.750532 -6.6021376e-13 -4.530471e-13     57.10648     57.10648    -868.6111    -868.6111 -4.3325612e-13   -497263.39            0      1499174 
       0.004        4    459.70716    21.638331 -5.5655337e-13 -5.3029051e-13     57.10648     57.10648   -871.86748   -871.86748 -2.0074616e-12    -497263.4            0      1499174 
       0.005        5    459.70716    14.691667 -5.5094357e-13 -3.2077502e-13     57.10648     57.10648   -876.70269   -876.70269 -3.0499707e-13    -497263.4            0      1499174 
       0.006        6    459.70716    12.157061 -1.0582032e-12 -1.4335069e-12     57.10648     57.10648   -878.36823   -878.36823 -7.2956747e-13    -497263.4            0      1499174 
       0.007        7    459.70716    10.737105 -4.4179475e-13 -2.5502802e-13     57.10648     57.10648   -879.08382   -879.08382 -1.7398788e-12    -497263.4            0      1499174 
       0.008        8    459.70716    9.6536968 3.0432758e-13 1.1415319e-12     57.10648     57.10648   -879.72241   -879.72241 -9.1610427e-13    -497263.4            0      1499174 
       0.009        9    459.70716    8.3458492 -7.5928516e-15 9.4575887e-13     57.10648     57.10648   -880.57412   -880.57412 1.5617282e-13    -497263.4            0      1499174 
        0.01       10    459.70716    7.5793812 -1.0609497e-12 8.1137805e-13     57.10648     57.10648   -881.04206   -881.04206 -1.3837637e-13    -497263.4            0      1499174 
       0.011       11    459.70716    7.0223345 5.6255829e-13 -1.1446252e-12     57.10648     57.10648    -881.3513    -881.3513 2.4567399e-14    -497263.4            0      1499174 
       0.012       12    459.70716     6.541356 1.6802587e-13 -1.2107641e-12     57.10648     57.10648    -881.6339    -881.6339 4.6373907e-13    -497263.4            0      1499174 
       0.013       13    459.70716    6.0130399 2.6490547e-13 -3.9192076e-13     57.10648     57.10648   -881.96844   -881.96844 -2.2483752e-13    -497263.4            0      1499174 
       0.014       14    459.70716    5.6369963 7.8397841e-13 3.2227443e-13     57.10648     57.10648   -882.19694   -882.19694 -1.3881183e-13    -497263.4            0      1499174 
       0.015       15    459.70716    5.3471857 2.3109946e-13 1.7354268e-12     57.10648     57.10648   -882.35882   -882.35882 4.215938e-14    -497263.4            0      1499174 
       0.016       16    459.70716    5.0742841 2.6853871e-13 1.8586381e-14     57.10648     57.10648   -882.52122   -882.52122 -2.5562291e-13    -497263.4            0      1499174 
       0.017       17    459.70716    4.7900819 1.1166615e-12 -1.6080563e-14     57.10648     57.10648   -882.69854   -882.69854 -5.3792273e-13    -497263.4            0      1499174 
       0.018       18    459.70716    4.5687224 -2.6066816e-14 7.4399978e-13     57.10648     57.10648   -882.83154   -882.83154 -3.6322468e-13    -497263.4            0      1499174 
       0.019       19    459.70716    4.3891848 -1.0446683e-13 1.0596134e-12     57.10648     57.10648   -882.93356   -882.93356 5.7058668e-13    -497263.4            0      1499174 
        0.02       20    459.70716    4.2128702 3.2947616e-13 2.643466e-13     57.10648     57.10648   -883.03866   -883.03866 1.1898597e-13    -497263.4            0      1499174 
       0.021       21    459.70716     4.035447 3.088705e-13 6.1221183e-13     57.10648     57.10648   -883.14853   -883.14853 5.5662989e-13    -497263.4            0      1499174 
       0.022       22    459.70716     3.888901 3.5461639e-12 -1.3682706e-12     57.10648     57.10648   -883.23607   -883.23607 -2.5790235e-12    -497263.4            0      1499174 
       0.023       23    459.70716    3.7665375 1.3074623e-11 -1.064245e-11     57.10648     57.10648   -883.30613   -883.30613 -1.3733325e-11    -497263.4            0      1499174 
       0.024       24    459.70716    3.6427407 1.201858e-10 -8.6990381e-11     57.10648     57.10648   -883.38024   -883.38024 -1.3844751e-10    -497263.4            0      1499174 
       0.025       25    459.70716    3.5227637 8.4643609e-10 -5.8105471e-10     57.10648     57.10648   -883.45404   -883.45404 -1.054541e-09    -497263.4            0      1499174 
       0.026       26    459.70716    3.4300454 4.8768296e-09 -3.1468657e-09     57.10648     57.10648   -883.50933   -883.50933 -6.5342527e-09    -497263.4            0      1499174 
       0.027       27    459.70716    3.3598862 3.7993304e-09 -2.1703672e-09     57.10648     57.10648   -883.55006   -883.55006 -5.7772165e-09    -497263.4            0      1499174 
       0.028       28    459.70716    3.2828646 7.5627973e-10 -2.4124805e-10     57.10648     57.10648   -883.59504   -883.59504 -1.7601301e-09    -497263.4            0      1499174 
       0.029       29    459.70716    3.1904393 3.5757451e-10 -1.6854452e-10     57.10648     57.10648   -883.65125   -883.65125 -1.7506875e-09    -497263.4            0      1499174 
        0.03       30    459.70716    3.1144269 8.643414e-10 -1.2332396e-09     57.10648     57.10648   -883.69751   -883.69751 -5.3278156e-09    -497263.4            0      1499174 
       0.031       31    459.70716    3.0561332 9.9295186e-10 -1.6820351e-09     57.10648     57.10648    -883.7319    -883.7319 -6.6378964e-09    -497263.4            0      1499174 
       0.032       32    459.70716    2.9963787 1.9215143e-10 -2.5689005e-10     57.10648     57.10648   -883.76654   -883.76654 -1.4969655e-09    -497263.4            0      1499174 
       0.033       33    459.70716    2.9298389 1.7127749e-10 -2.3824518e-10     57.10648     57.10648   -883.80619   -883.80619 -9.9651082e-10    -497263.4            0      1499174 
       0.034       34    459.70716    2.8676991 5.8635787e-10 -9.9698413e-10     57.10648     57.10648   -883.84409   -883.84409 -2.4759271e-09    -497263.4            0      1499174 
       0.035       35    459.70716    2.8199465 5.0006519e-10 -7.5281445e-10     57.10648     57.10648   -883.87288   -883.87288 -2.437292e-09    -497263.4            0      1499174 
       0.036       36    459.70716    2.7663669 9.9007474e-11 -7.9045325e-11     57.10648     57.10648   -883.90432   -883.90432 -1.044476e-09    -497263.4            0      1499174 
       0.037       37    459.70716    2.7161084 1.6619909e-10 -2.8869387e-10     57.10648     57.10648    -883.9337    -883.9337 -1.4799569e-09    -497263.4            0      1499174 
       0.038       38    459.70716    2.6693444 4.9099273e-10 -1.0001048e-09     57.10648     57.10648   -883.96187   -883.96187 -3.2410231e-09    -497263.4            0      1499174 
       0.039       39    459.70716    2.6255334 1.7868481e-10 -3.81599e-10     57.10648     57.10648   -883.98851   -883.98851 -1.6087717e-09    -497263.4            0      1499174 
        0.04       40    459.70716    2.5788434 6.1765023e-11 -1.4690839e-10     57.10648     57.10648   -884.01643   -884.01643 -9.4775859e-10    -497263.4            0      1499174 
       0.041       41    459.70716    2.5376803 1.4594457e-10 -4.1737357e-10     57.10648     57.10648   -884.04046   -884.04046 -1.2451586e-09    -497263.4            0      1499174 
       0.042       42    459.70716     2.503648 1.2114536e-10 -3.5222934e-10     57.10648     57.10648   -884.06053   -884.06053 -9.8390285e-10    -497263.4            0      1499174 
       0.043       43    459.70716     2.461945 3.5011626e-11 -5.4463384e-11     57.10648     57.10648   -884.08568   -884.08568 -3.5720991e-10    -497263.4            0      1499174 
       0.044       44    459.70716    2.4212792 1.3559451e-10 -2.059213e-10     57.10648     57.10648   -884.11033   -884.11033 -1.6473252e-10    -497263.4            0      1499174 
       0.045       45    459.70716    2.3875649 3.5595362e-10 -5.7737301e-10     57.10648     57.10648   -884.13029   -884.13029  3.75213e-11    -497263.4            0      1499174 
       0.046       46    459.70716    2.3563326 1.6417677e-10 -2.1160819e-10     57.10648     57.10648   -884.14855   -884.14855 2.8421447e-11    -497263.4            0      1499174 
       0.047       47    459.70716    2.3214125 1.2118304e-10 -1.3772237e-10     57.10648     57.10648   -884.16929   -884.16929 -7.6893929e-11    -497263.4            0      1499174 
       0.048       48    459.70716    2.2875024 2.8747107e-10 -3.9477559e-10     57.10648     57.10648   -884.18983   -884.18983 -2.8073976e-10    -497263.4            0      1499174 
       0.049       49    459.70716    2.2591378 2.6792665e-10 -2.9043406e-10     57.10648     57.10648   -884.20692   -884.20692 -3.2225395e-10    -497263.4            0      1499174 
        0.05       50    459.70716    2.2279451 1.7083061e-10 -1.025971e-10     57.10648     57.10648   -884.22533   -884.22533 -2.0617721e-10    -497263.4            0      1499174 
       0.051       51    459.70716    2.1991268 3.2543762e-10 -2.5876908e-10     57.10648     57.10648   -884.24224   -884.24224 -1.4477361e-10    -497263.4            0      1499174 
       0.052       52    459.70716    2.1727821 4.5108223e-10 -3.4152064e-10     57.10648     57.10648   -884.25799   -884.25799 -2.4571051e-11    -497263.4            0      1499174 
       0.053       53    459.70716     2.144405 2.0824836e-10 -6.4696084e-11     57.10648     57.10648   -884.27517   -884.27517 -7.2821744e-12    -497263.4            0      1499174 
       0.054       54    459.70716    2.1163767 2.7387789e-10 -1.0978626e-10     57.10648     57.10648   -884.29195   -884.29195 -7.9270977e-11    -497263.4            0      1499174 
       0.055       55    459.70716    2.0923538 4.0308001e-10 -2.40543e-10     57.10648     57.10648   -884.30608   -884.30608 -7.7773128e-11    -497263.4            0      1499174 
       0.056       56    459.70716    2.0693794 2.0051654e-10 -7.9317059e-11     57.10648     57.10648   -884.31961   -884.31961 4.2155214e-11    -497263.4            0      1499174 
       0.057       57    459.70716    2.0428018 1.5980477e-10 -5.7197881e-11     57.10648     57.10648   -884.33556   -884.33556 6.3735533e-11    -497263.4            0      1499174 
       0.058       58    459.70716    2.0192393 2.3250185e-10 -1.5414924e-10     57.10648     57.10648   -884.34979   -884.34979 2.3546737e-11    -497263.4            0      1499174 
       0.059       59    459.70716    1.9973272 1.5502916e-10 -8.4907444e-11     57.10648     57.10648   -884.36286   -884.36286 5.0344802e-12    -497263.4            0      1499174 
        0.06       60    459.70716    1.9741809 1.1493415e-10 -3.3368239e-11     57.10648     57.10648   -884.37646   -884.37646 -2.8204057e-12    -497263.4            0      1499174 
       0.061       61    459.70716    1.9529326 2.0805568e-10 -1.1681007e-10     57.10648     57.10648   -884.38905   -884.38905 -4.8722095e-11    -497263.4            0      1499174 
       0.062       62    459.70716    1.9322392 1.5128247e-10 -6.5849391e-11     57.10648     57.10648    -884.4015    -884.4015 -4.5520979e-11    -497263.4            0      1499174 
       0.063       63    459.70716    1.9102767 8.3658729e-11 -2.5334702e-12     57.10648     57.10648   -884.41474   -884.41474 -2.8350587e-11    -497263.4            0      1499174 
       0.064       64    459.70716    1.8895481 1.3308183e-10 -5.3137869e-11     57.10648     57.10648   -884.42704   -884.42704 -5.467751e-11    -497263.4            0      1499174 
       0.065       65    459.70716     1.871572 1.0000147e-10 -4.3144442e-11     57.10648     57.10648   -884.43761   -884.43761 -1.9109753e-11    -497263.4            0      1499174 
       0.066       66    459.70716    1.8518588 4.0096526e-11 -1.495914e-11     57.10648     57.10648   -884.44932   -884.44932 3.0438425e-11    -497263.4            0      1499174 
       0.067       67    459.70716    1.8313164 5.1774405e-11 -6.8615076e-11     57.10648     57.10648   -884.46171   -884.46171 3.4441207e-11    -497263.4            0      1499174 
       0.068       68    459.70716    1.8137703  5.91705e-11 -8.3968331e-11     57.10648     57.10648   -884.47224   -884.47224 -1.2935754e-11    -497263.4            0      1499174 
       0.069       69    459.70716    1.7953606 2.6314794e-11 -1.4530408e-11     57.10648     57.10648   -884.48314   -884.48314 -5.0127007e-11    -497263.4            0      1499174 
        0.07       70    459.70716    1.7773985 3.5884054e-11 -2.4227958e-11     57.10648     57.10648   -884.49372   -884.49372 -8.7057251e-11    -497263.4            0      1499174 
       0.071       71    459.70716    1.7606011 5.423042e-11 -5.1610951e-11     57.10648     57.10648   -884.50375   -884.50375 -9.2716774e-11    -497263.4            0      1499174 
       0.072       72    459.70716    1.7429638 2.5663895e-11 -9.5099852e-12     57.10648     57.10648   -884.51438   -884.51438 -1.5439867e-11    -497263.4            0      1499174 
       0.073       73    459.70716    1.7253285 4.5374149e-11 -2.2840176e-11     57.10648     57.10648   -884.52493   -884.52493 3.4011407e-11    -497263.4            0      1499174 
       0.074       74    459.70716    1.7096171 8.7267432e-11 -5.4373905e-11     57.10648     57.10648   -884.53421   -884.53421 6.3814427e-11    -497263.4            0      1499174 
       0.075       75    459.70716    1.6942647 5.4998945e-11 -2.015679e-11     57.10648     57.10648   -884.54328   -884.54328  3.79369e-11    -497263.4            0      1499174 
       0.076       76    459.70716    1.6771542 6.059259e-11 -2.7186808e-11     57.10648     57.10648   -884.55352   -884.55352 2.8512486e-11    -497263.4            0      1499174 
       0.077       77    459.70716    1.6616335 9.4287546e-11 -6.3248773e-11     57.10648     57.10648   -884.56286   -884.56286 5.5940468e-11    -497263.4            0      1499174 
       0.078       78    459.70716     1.646635 7.1635402e-11 -4.1678852e-11     57.10648     57.10648   -884.57181   -884.57181 7.0925183e-11    -497263.4            0      1499174 
       0.079       79    459.70716    1.6310363 6.664881e-11 -3.6591042e-11     57.10648     57.10648   -884.58101   -884.58101 6.0038272e-11    -497263.4            0      1499174 
        0.08       80    459.70716    1.6167992 1.039899e-10 -6.9425788e-11     57.10648     57.10648   -884.58945   -884.58945 3.1730952e-11    -497263.4            0      1499174 
       0.081       81    459.70716     1.602158 7.4184636e-11 -4.2391258e-11     57.10648     57.10648   -884.59823   -884.59823 -1.5353762e-12    -497263.4            0      1499174 
       0.082       82    459.70716    1.5869236 6.5330119e-11 -3.3459898e-11     57.10648     57.10648   -884.60739   -884.60739 -4.9099079e-12    -497263.4            0      1499174 
       0.083       83    459.70716    1.5728675 1.0400919e-10 -6.8426746e-11     57.10648     57.10648   -884.61575   -884.61575 -2.9937344e-12    -497263.4            0      1499174 
       0.084       84    459.70716    1.5596567 8.0243688e-11 -5.2098474e-11     57.10648     57.10648   -884.62354   -884.62354 -2.3846564e-12    -497263.4            0      1499174 
       0.085       85    459.70716    1.5454998 6.7960861e-11 -4.2955531e-11     57.10648     57.10648   -884.63196   -884.63196 -3.1688656e-12    -497263.4            0      1499174 
       0.086       86    459.70716    1.5315687 8.3943207e-11 -5.8182757e-11     57.10648     57.10648   -884.64033   -884.64033 7.0212387e-12    -497263.4            0      1499174 
       0.087       87    459.70716     1.518645 5.8997301e-11 -4.4251624e-11     57.10648     57.10648   -884.64808   -884.64808 2.2208452e-11    -497263.4            0      1499174 
       0.088       88    459.70716    1.5049129 4.0873997e-11 -3.3317688e-11     57.10648     57.10648   -884.65622   -884.65622 1.626155e-11    -497263.4            0      1499174 
       0.089       89    459.70716    1.4922403 4.5777117e-11 -4.4430277e-11     57.10648     57.10648   -884.66371   -884.66371 -2.0229549e-12    -497263.4            0      1499174 
        0.09       90    459.70716    1.4798299 3.3845187e-11 -3.7859338e-11     57.10648     57.10648   -884.67111   -884.67111 -8.9947594e-12    -497263.4            0      1499174 
       0.091       91    459.70716    1.4663023 2.583369e-11 -2.7706332e-11     57.10648     57.10648   -884.67923   -884.67923 -1.0782624e-11    -497263.4            0      1499174 
       0.092       92    459.70716    1.4537719 3.6787449e-11 -4.0448732e-11     57.10648     57.10648   -884.68673   -884.68673 -1.7395999e-11    -497263.4            0      1499174 
       0.093       93    459.70716    1.4418455 2.5698248e-11 -3.0237528e-11     57.10648     57.10648   -884.69379   -884.69379 -2.0417303e-13    -497263.4            0      1499174 
       0.094       94    459.70716    1.4294643 1.7193417e-11 -2.2048544e-11     57.10648     57.10648   -884.70112   -884.70112 1.8940257e-11    -497263.4            0      1499174 
       0.095       95    459.70716    1.4170534 2.3994331e-11 -3.8783354e-11     57.10648     57.10648   -884.70853   -884.70853 3.0787402e-11    -497263.4            0      1499174 
       0.096       96    459.70716    1.4053692 1.7432474e-11 -3.9366367e-11     57.10648     57.10648   -884.71555   -884.71555 2.5681321e-11    -497263.4            0      1499174 
       0.097       97    459.70716    1.3931919 1.2454658e-11 -3.6777112e-11     57.10648     57.10648   -884.72282   -884.72282 1.9578651e-11    -497263.4            0      1499174 
       0.098       98    459.70716    1.3815089 1.6126393e-11 -4.3968821e-11     57.10648     57.10648   -884.72973   -884.72973 1.8180984e-11    -497263.4            0      1499174 
       0.099       99    459.70716     1.370645 9.0281404e-12 -3.456454e-11     57.10648     57.10648   -884.73617   -884.73617 1.7327704e-11    -497263.4            0      1499174 
         0.1      100    459.70716    1.3585221 4.8486036e-12 -2.657133e-11     57.10648     57.10648   -884.74343   -884.74343 1.2945552e-11    -497263.4            0      1499174 
       0.101      101    459.70716    1.3468463 1.4235072e-11 -3.6951628e-11     57.10648     57.10648   -884.75043   -884.75043 6.2051747e-12    -497263.4            0      1499174 
       0.102      102    459.70716    1.3360143 1.4943332e-11 -3.7524879e-11     57.10648     57.10648   -884.75689   -884.75689 -3.4768649e-12    -497263.4            0      1499174 
       0.103      103    459.70716    1.3247629 8.1655896e-12 -2.7183473e-11     57.10648     57.10648   -884.76354   -884.76354 -1.0648469e-11    -497263.4            0      1499174 
       0.104      104    459.70716    1.3137301 2.0289686e-11 -3.4518439e-11     57.10648     57.10648    -884.7701    -884.7701 -2.0841085e-11    -497263.4            0      1499174 
       0.105      105    459.70716    1.3029218 2.1636034e-11 -3.1310933e-11     57.10648     57.10648   -884.77657   -884.77657 -1.6499095e-11    -497263.4            0      1499174 
       0.106      106    459.70716    1.2917996 1.7853753e-11 -2.4201986e-11     57.10648     57.10648   -884.78324   -884.78324 -1.0251165e-11    -497263.4            0      1499174 
       0.107      107    459.70716    1.2809487 3.5764941e-11 -3.0101158e-11     57.10648     57.10648   -884.78969   -884.78969 -1.2251965e-11    -497263.4            0      1499174 
       0.108      108    459.70716    1.2708935 2.5542575e-11 -2.794956e-11     57.10648     57.10648   -884.79564   -884.79564 9.7481289e-14    -497263.4            0      1499174 
       0.109      109    459.70716    1.2601442 1.0318036e-11 -2.4090886e-11     57.10648     57.10648   -884.80203   -884.80203  1.01291e-11    -497263.4            0      1499174 
        0.11      110    459.70716    1.2493172 1.0696615e-11 -2.6371941e-11     57.10648     57.10648   -884.80853   -884.80853 1.3912806e-12    -497263.4            0      1499174 
       0.111      111    459.70716    1.2392743 1.7534221e-12 -2.1111476e-11     57.10648     57.10648   -884.81454   -884.81454 -1.1790322e-11    -497263.4            0      1499174 
       0.112      112    459.70716    1.2287248 -8.4383262e-12 -1.4320788e-11     57.10648     57.10648    -884.8208    -884.8208 -6.8273741e-12    -497263.4            0      1499174 
       0.113      113    459.70716    1.2188654 -3.03522e-12 -1.3225921e-11     57.10648     57.10648   -884.82664   -884.82664 -5.2940728e-12    -497263.4            0      1499174 
       0.114      114    459.70716    1.2099934 -1.1896234e-11 -4.7228856e-12     57.10648     57.10648   -884.83193   -884.83193 -3.8015194e-12    -497263.4            0      1499174 
       0.115      115    459.70716    1.2024095 -2.388103e-11 4.5258158e-12     57.10648     57.10648   -884.83648   -884.83648 -2.2327593e-12    -497263.4            0      1499174 
       0.116      116    459.70716    1.1979237 -2.7675286e-11 7.9072935e-12     57.10648     57.10648   -884.83916   -884.83916 -2.0886652e-13    -497263.4            0      1499174 
       0.117      117    459.70716    1.1958659 -3.4291566e-11 1.2456274e-11     57.10648     57.10648   -884.84037   -884.84037 1.2376729e-12    -497263.4            0      1499174 
       0.118      118    459.70716     1.194852 -3.4787589e-11 1.5947538e-11     57.10648     57.10648   -884.84097   -884.84097 3.9940777e-13    -497263.4            0      1499174 
       0.119      119    459.70716    1.1938896 -3.4379841e-11 1.5964089e-11     57.10648     57.10648   -884.84154   -884.84154 1.9109894e-14    -497263.4            0      1499174 
        0.12      120    459.70716    1.1913388 -2.3721524e-11 1.3911063e-11     57.10648     57.10648   -884.84308   -884.84308 -2.8538243e-12    -497263.4            0      1499174 
       0.121      121    459.70716    1.1756579 3.7608113e-11 -6.076439e-12     57.10648     57.10648   -884.85246   -884.85246 -2.9196181e-11    -497263.4            0      1499174 
       0.122      122    459.70716    1.0581892 5.8846893e-10 -3.02597e-10     57.10648     57.10648   -884.92247   -884.92247 -2.1435638e-10    -497263.4            0      1499174 
       0.123      123    459.70716   0.52716964  1.73516e-09 -6.221631e-10     57.10648     57.10648   -885.23874   -885.23874 -2.5817117e-10    -497263.4            0      1499174 
       0.124      124    459.70716  0.077159777 1.8452844e-09 1.043087e-10     57.10648     57.10648   -885.50686   -885.50686 -5.1003728e-11    -497263.4            0      1499174 
       0.125      125    459.70716  0.013899749 1.6618056e-09 3.1863952e-10     57.10648     57.10648   -885.54463   -885.54463 -1.0656676e-11    -497263.4            0      1499174 
       0.126      126    459.70716  0.006726482 1.5928823e-09 3.1882149e-10     57.10648     57.10648   -885.54894   -885.54894 -1.9671186e-12    -497263.4            0      1499174 
       0.127      127    459.70716 0.0042674331 1.4859248e-09 2.7265494e-10     57.10648     57.10648   -885.55043   -885.55043 -1.3737146e-12    -497263.4            0      1499174 
       0.128      128    459.70716 0.0014457323 1.2573505e-09 1.8455943e-10     57.10648     57.10648   -885.55212   -885.55212 1.5210959e-13    -497263.4            0      1499174 
       0.129      129    459.70716 0.00055525364 1.141147e-09 1.4783793e-10     57.10648     57.10648   -885.55264   -885.55264 -1.1150063e-13    -497263.4            0      1499174 
        0.13      130    459.70716 0.00041675665 1.0822282e-09 1.3222966e-10     57.10648     57.10648   -885.55271   -885.55271 6.429172e-13    -497263.4            0      1499174 
       0.131      131    459.70716 0.00025299136 9.5360286e-10 1.0049551e-10     57.10648     57.10648    -885.5528    -885.5528 -3.2525299e-13    -497263.4            0      1499174 
       0.132      132    459.70716 0.00012063033 8.4111428e-10 7.2971524e-11     57.10648     57.10648   -885.55289   -885.55289 5.7698166e-13    -497263.4            0      1499174 
Loop time of 15.4412 on 64 procs for 132 steps with 120800 atoms

84.9% CPU use with 64 MPI tasks x 1 OpenMP threads

Minimization stats:
  Stopping criterion = energy tolerance
  Energy initial, next-to-last, final = 
     -497261.355337392  -497263.401315488  -497263.401315488
  Force two-norm initial, final = 7.1080974 1.3963837e-05
  Force max component initial, final = 0.19826945 1.8884853e-07
  Final line search alpha, max atom move = 1.0000000 1.8884853e-07
  Iterations, force evaluations = 132 264

MPI task timing breakdown:
Section |  min time  |  avg time  |  max time  |%varavg| %total
---------------------------------------------------------------
Pair    | 7.6639     | 8.6772     | 9.2434     |  11.1 | 56.20
Neigh   | 0          | 0          | 0          |   0.0 |  0.00
Comm    | 3.1999     | 3.4744     | 3.6201     |   5.4 | 22.50
Output  | 0.48673    | 0.488      | 0.49213    |   0.1 |  3.16
Modify  | 0          | 0          | 0          |   0.0 |  0.00
Other   |            | 2.802      |            |       | 18.14

Nlocal:        1887.50 ave        2100 max         900 min
Histogram: 4 0 4 0 0 0 0 0 0 56
Nghost:        5040.94 ave        5471 max        2467 min
Histogram: 4 4 0 0 0 0 0 0 0 56
Neighs:         0.00000 ave           0 max           0 min
Histogram: 64 0 0 0 0 0 0 0 0 0
FullNghs:      314975.0 ave      352800 max      134200 min
Histogram: 4 0 4 0 0 0 0 0 0 56

Total # of neighbors = 20158400
Ave neighs/atom = 166.87417
Neighbor list builds = 0
Dangerous builds = 0
variable oshikko equal pxx
variable p0 equal ${oshikko}
variable p0 equal 0.000120630332085823
variable unko equal lx
variable lx0 equal ${unko}
variable lx0 equal 459.707164

variable current_time equal time

variable boxlen equal lx
variable boxwidth equal ly
variable pressure equal pxx
variable epsilon equal ln(lx/${lx0})
variable epsilon equal ln(lx/459.707164)
variable sigma equal abs(pxx-${p0})
variable sigma equal abs(pxx-0.000120630332085823)
fix extra all print 1 "${boxlen} ${boxwidth} ${pressure} ${sigma} ${epsilon} ${current_time} $t" file sscurve.txt

#fix strain all deform 1000 x trate 0.0001
#fix strain1 all deform 1 x scale 1.0001
#run 1
#minimize 1.0e-30 1.0e-30 100000 100000
#unfix strain1
#fix strain2 all deform 1 x scale 1.0001
#run 1
#minimize 1.0e-30 1.0e-30 100000 100000
#unfix strain2
#fix strain1 all deform 1 x scale 1.0001
#run 1
#minimize 1.0e-30 1.0e-30 100000 100000
#quit

minimize 1.0e-30 1.0e-30 100000 100000
WARNING: Using 'neigh_modify every 1 delay 0 check yes' setting during minimization (../min.cpp:188)
Per MPI rank memory allocation (min/avg/max) = 1.667 | 2.488 | 2.679 Mbytes
Time Step Lx Pxx Pxy Pxz Ly Lz Pyy Pzz Pyz TotEng Temp Volume 
       0.132      132    459.70716 0.00012063033 8.4121812e-10 7.295245e-11     57.10648     57.10648   -885.55289   -885.55289 4.799883e-13    -497263.4            0      1499174 
       0.133      133    459.70716 0.00011097974 8.2509932e-10 6.6292492e-11     57.10648     57.10648   -885.55289   -885.55289 -2.1277315e-13    -497263.4            0      1499174 
       0.134      134    459.70716 9.8327843e-05 7.818333e-10 5.3024366e-11     57.10648     57.10648    -885.5529    -885.5529 -1.55252e-13    -497263.4            0      1499174 
       0.135      135    459.70716 0.00010245182 7.3200609e-10 4.1716677e-11     57.10648     57.10648    -885.5529    -885.5529 -4.4850233e-13    -497263.4            0      1499174 
       0.136      136    459.70716 0.00011484912   6.5852e-10 2.7830941e-11     57.10648     57.10648   -885.55289   -885.55289 -9.2132206e-13    -497263.4            0      1499174 
Loop time of 0.532573 on 64 procs for 4 steps with 120800 atoms

84.6% CPU use with 64 MPI tasks x 1 OpenMP threads

Minimization stats:
  Stopping criterion = energy tolerance
  Energy initial, next-to-last, final = 
     -497263.401315488  -497263.401315488  -497263.401315488
  Force two-norm initial, final = 1.3963837e-05 7.1065157e-06
  Force max component initial, final = 1.8884852e-07 8.8716412e-08
  Final line search alpha, max atom move = 1.0000000 8.8716412e-08
  Iterations, force evaluations = 4 8

MPI task timing breakdown:
Section |  min time  |  avg time  |  max time  |%varavg| %total
---------------------------------------------------------------
Pair    | 0.24656    | 0.29014    | 0.32502    |   3.4 | 54.48
Neigh   | 0          | 0          | 0          |   0.0 |  0.00
Comm    | 0.10961    | 0.12577    | 0.15607    |   4.3 | 23.62
Output  | 0.010933   | 0.011071   | 0.011191   |   0.1 |  2.08
Modify  | 0          | 0          | 0          |   0.0 |  0.00
Other   |            | 0.1056     |            |       | 19.83

Nlocal:        1887.50 ave        2109 max         897 min
Histogram: 4 0 4 0 0 0 0 0 3 53
Nghost:        5040.94 ave        5485 max        2465 min
Histogram: 4 4 0 0 0 0 0 0 0 56
Neighs:         0.00000 ave           0 max           0 min
Histogram: 64 0 0 0 0 0 0 0 0 0
FullNghs:      314975.0 ave      354312 max      133617 min
Histogram: 4 0 4 0 0 0 0 0 0 56

Total # of neighbors = 20158400
Ave neighs/atom = 166.87417
Neighbor list builds = 0
Dangerous builds = 0
label		deformationLoop
#variable	i loop 25
variable	j loop 5
variable 	expRate equal 1+0.0001*$j
variable 	expRate equal 1+0.0001*1
fix strain 	all deform 1 x scale ${expRate}
fix strain 	all deform 1 x scale 1.0001
run 		1
459.707164 57.10648 0.000114849117904258 5.78121418156482e-06 0 0 0
Per MPI rank memory allocation (min/avg/max) = 1.435 | 2.011 | 2.167 Mbytes
Time Step Lx Pxx Pxy Pxz Ly Lz Pyy Pzz Pyz TotEng Temp Volume 
           0      136    459.70716 0.00011484912 6.5845728e-10 2.8249488e-11     57.10648     57.10648   -885.55289   -885.55289 -9.4351444e-13    -497263.4            0      1499174 
459.707164 57.10648 0.000114844471433908 5.78586065191451e-06 0 0.001 2.79118136522399e-16
       0.001      137    459.75313 0.00011483299 6.5915694e-10 2.9027586e-11     57.10648     57.10648   -885.46434   -885.46434 -4.8080274e-13    -497263.4 2.7911814e-16      1499324 
Loop time of 0.0752253 on 64 procs for 1 steps with 120800 atoms

Performance: 1.149 ns/day, 20.896 hours/ns, 13.293 timesteps/s
82.6% CPU use with 64 MPI tasks x 1 OpenMP threads

MPI task timing breakdown:
Section |  min time  |  avg time  |  max time  |%varavg| %total
---------------------------------------------------------------
Pair    | 0.028703   | 0.032877   | 0.036096   |   1.0 | 43.70
Neigh   | 0          | 0          | 0          |   0.0 |  0.00
Comm    | 0.013618   | 0.015303   | 0.016493   |   0.5 | 20.34
Output  | 0.0047017  | 0.0054203  | 0.006132   |   0.6 |  7.21
Modify  | 0.011078   | 0.015216   | 0.020808   |   1.8 | 20.23
Other   |            | 0.006409   |            |       |  8.52

Nlocal:        1887.50 ave        2118 max         895 min
Histogram: 4 0 4 0 0 0 0 0 13 43
Nghost:        5040.94 ave        5487 max        2460 min
Histogram: 4 4 0 0 0 0 0 0 0 56
Neighs:         0.00000 ave           0 max           0 min
Histogram: 64 0 0 0 0 0 0 0 0 0
FullNghs:      314975.0 ave      355824 max      133690 min
Histogram: 4 0 4 0 0 0 0 0 1 55

Total # of neighbors = 20158400
Ave neighs/atom = 166.87417
Neighbor list builds = 0
Dangerous builds = 0
print 		"${boxlen} ${boxwidth} ${pressure} ${sigma} ${epsilon} ${current_time} $t" append sstest.txt
459.7531347164 57.10648 0.000114832988135095 5.79734395072801e-06 9.99950003332973e-05 0.001 2.79118136522399e-16
print 		"run 1 end"
run 1 end
minimize 	1.0e-30 1.0e-30 100000 100000
WARNING: Using 'neigh_modify every 1 delay 0 check yes' setting during minimization (../min.cpp:188)
Per MPI rank memory allocation (min/avg/max) = 1.667 | 2.488 | 2.679 Mbytes
Time Step Lx Pxx Pxy Pxz Ly Lz Pyy Pzz Pyz TotEng Temp Volume 
       0.001      137    459.75313   -227.21438 6.5896222e-10 2.9166506e-11     57.10648     57.10648   -1021.0678   -1021.0678 -3.7613315e-13   -497263.39 2.7911814e-16      1499324 
       0.002      138    459.75313   -224.91607 6.2687947e-10 2.9390388e-11     57.10648     57.10648   -1019.3932   -1019.3932 2.3081459e-13   -497263.39 2.7911814e-16      1499324 
       0.003      139    459.75313   -222.58599 5.6429934e-10 2.8901376e-11     57.10648     57.10648   -1018.0784   -1018.0784 -2.838618e-13   -497263.39 2.7911814e-16      1499324 
       0.004      140    459.75313   -220.28337 5.7367197e-10 2.1048904e-11     57.10648     57.10648   -1016.6712   -1016.6712 -6.0473884e-12   -497263.39 2.7911814e-16      1499324 
       0.005      141    459.75313   -218.00779 1.608824e-09 4.8007345e-12     57.10648     57.10648   -1015.3349   -1015.3349 -6.3404317e-11   -497263.39 2.7911814e-16      1499324 
       0.006      142    459.75313   -215.76005 1.367428e-08 2.0562283e-10     57.10648     57.10648   -1013.9887   -1013.9887 -6.8221022e-10   -497263.39 2.7911814e-16      1499324 
       0.007      143    459.75313   -213.54942 1.2909338e-07 4.216031e-09     57.10648     57.10648   -1012.6688   -1012.6688 -6.6121864e-09   -497263.39 2.7911814e-16      1499324 
       0.008      144    459.75313   -211.44695 9.6595591e-07 4.5495763e-08     57.10648     57.10648   -1011.4266   -1011.4266 -4.9740343e-08   -497263.39 2.7911814e-16      1499324 
       0.009      145    459.75313   -209.70294 2.409627e-06 1.4987719e-07     57.10648     57.10648   -1010.3799   -1010.3799 -1.2325301e-07   -497263.39 2.7911814e-16      1499324 
        0.01      146    459.75313    -207.9064 7.9546374e-07 7.6996744e-08     57.10648     57.10648   -1009.3053   -1009.3053 -3.7495483e-08   -497263.39 2.7911814e-16      1499324 
       0.011      147    459.75313   -205.77681 1.4233151e-07 1.3359466e-08     57.10648     57.10648   -1008.0507   -1008.0507 2.7773688e-09   -497263.39 2.7911814e-16      1499324 
       0.012      148    459.75313      -203.64 1.0883235e-07 -1.070378e-07     57.10648     57.10648   -1006.7635   -1006.7635 2.9025211e-08   -497263.39 2.7911814e-16      1499324 
       0.013      149    459.75313   -201.77814 2.0904847e-07 -3.1365053e-07     57.10648     57.10648   -1005.6603   -1005.6603 2.4101053e-08   -497263.39 2.7911814e-16      1499324 
       0.014      150    459.75313   -199.95214 1.2865726e-07 -1.4678342e-07     57.10648     57.10648   -1004.5794   -1004.5794 -6.7791534e-08   -497263.39 2.7911814e-16      1499324 
       0.015      151    459.75313   -197.87896 1.3953172e-07 -1.2049861e-07     57.10648     57.10648   -1003.3321   -1003.3321 -1.4491633e-07   -497263.39 2.7911814e-16      1499324 
       0.016      152    459.75313   -195.97855 3.5016454e-07 -3.5340082e-07     57.10648     57.10648   -1002.2064   -1002.2064 -2.4253728e-07   -497263.39 2.7911814e-16      1499324 
       0.017      153    459.75313   -194.22048 2.4489857e-07 -1.997097e-07     57.10648     57.10648    -1001.164    -1001.164 -1.0872204e-07   -497263.39 2.7911814e-16      1499324 
       0.018      154    459.75313   -192.16981 1.5260457e-07 -9.5733024e-08     57.10648     57.10648   -999.93234   -999.93234 -7.5430571e-08   -497263.39 2.7911814e-16      1499324 
       0.019      155    459.75313   -190.18455 3.0932752e-07 -2.9264773e-07     57.10648     57.10648   -998.75533   -998.75533 -2.0784053e-07   -497263.39 2.7911814e-16      1499324 
        0.02      156    459.75313   -188.39133 3.0865769e-07 -2.6013936e-07     57.10648     57.10648   -997.69029   -997.69029 -1.9792822e-07   -497263.39 2.7911814e-16      1499324 
       0.021      157    459.75313   -186.38458 2.1566507e-07 -9.821944e-08     57.10648     57.10648   -996.48719   -996.48719 -1.4006422e-07   -497263.39 2.7911814e-16      1499324 
       0.022      158    459.75313   -184.37378 4.6086424e-07 -2.6756497e-07     57.10648     57.10648   -995.29383   -995.29383 -3.569654e-07   -497263.39 2.7911814e-16      1499324 
       0.023      159    459.75313   -182.58888 6.4287323e-07 -3.8350912e-07     57.10648     57.10648   -994.23292   -994.23292 -4.6494837e-07   -497263.39 2.7911814e-16      1499324 
       0.024      160    459.75313   -180.65247 4.7081725e-07 -1.8141003e-07     57.10648     57.10648   -993.07401   -993.07401 -2.4949875e-07   -497263.39 2.7911814e-16      1499324 
       0.025      161    459.75313   -178.66736 7.0168898e-07 -2.3889282e-07     57.10648     57.10648   -991.89357   -991.89357 -2.3828387e-07   -497263.39 2.7911814e-16      1499324 
       0.026      162    459.75313   -176.85191 7.9450126e-07 -2.9626461e-07     57.10648     57.10648   -990.81508   -990.81508 -9.3015138e-08   -497263.39 2.7911814e-16      1499324 
       0.027      163    459.75313   -174.90672 5.1172117e-07 -1.6218744e-07     57.10648     57.10648   -989.65253   -989.65253 8.8192696e-08   -497263.39 2.7911814e-16      1499324 
       0.028      164    459.75313   -172.90163 6.6812657e-07 -2.090134e-07     57.10648     57.10648    -988.4582    -988.4582 3.7402201e-08   -497263.39 2.7911814e-16      1499324 
       0.029      165    459.75313    -171.0501 9.3838024e-07 -3.3526146e-07     57.10648     57.10648   -987.35865   -987.35865 -1.6788639e-07   -497263.39 2.7911814e-16      1499324 
        0.03      166    459.75313   -169.14677 7.7984637e-07 -3.0563898e-07     57.10648     57.10648    -986.2225    -986.2225 -2.236276e-07   -497263.39 2.7911814e-16      1499324 
       0.031      167    459.75313   -167.18234 8.8602529e-07 -4.1131185e-07     57.10648     57.10648    -985.0505    -985.0505 -3.0295827e-07   -497263.39 2.7911814e-16      1499324 
       0.032      168    459.75313   -165.33782 9.5757382e-07 -4.7129097e-07     57.10648     57.10648   -983.95548   -983.95549 -3.6663344e-07   -497263.39 2.7911814e-16      1499324 
       0.033      169    459.75313   -163.43743 5.8996771e-07 -2.5140193e-07     57.10648     57.10648    -982.8227    -982.8227 -2.7803571e-07   -497263.39 2.7911814e-16      1499324 
       0.034      170    459.75313    -161.4612 4.3775328e-07 -1.8229997e-07     57.10648     57.10648   -981.64186   -981.64186 -3.2801485e-07   -497263.39 2.7911814e-16      1499324 
       0.035      171    459.75313   -159.57844 3.9226038e-07 -2.2728336e-07     57.10648     57.10648   -980.52431   -980.52431 -3.6338011e-07   -497263.39 2.7911814e-16      1499324 
       0.036      172    459.75313   -157.67189 2.5692465e-07 -1.7172389e-07     57.10648     57.10648   -979.38901   -979.38901 -2.0495276e-07   -497263.39 2.7911814e-16      1499324 
       0.037      173    459.75313   -155.68295 2.2945557e-07 -1.5459074e-07     57.10648     57.10648   -978.19949   -978.19949 -1.5346373e-07   -497263.39 2.7911814e-16      1499324 
       0.038      174    459.75313   -153.79207 2.8089745e-07 -2.3216335e-07     57.10648     57.10648   -977.07718   -977.07719 -1.0744765e-07   -497263.39 2.7911814e-16      1499324 
       0.039      175    459.75313   -151.93189 2.3417638e-07 -2.1458762e-07     57.10648     57.10648   -975.97034   -975.97034 4.1465993e-08   -497263.39 2.7911814e-16      1499324 
        0.04      176    459.75313   -149.97353 2.1985534e-07 -1.845166e-07     57.10648     57.10648   -974.79849   -974.79849 -1.3461842e-08   -497263.39 2.7911814e-16      1499324 
       0.041      177    459.75313   -148.08861 2.3312705e-07  -2.0356e-07     57.10648     57.10648   -973.67899   -973.67899 -2.0667488e-07   -497263.39 2.7911814e-16      1499324 
       0.042      178    459.75313   -146.20756 1.8706916e-07 -1.565701e-07     57.10648     57.10648   -972.56091   -972.56091 -1.9019553e-07   -497263.39 2.7911814e-16      1499324 
       0.043      179    459.75313    -144.2247 2.303563e-07 -1.3944798e-07     57.10648     57.10648   -971.37415   -971.37415 -2.1215614e-07   -497263.39 2.7911814e-16      1499324 
       0.044      180    459.75313   -142.32843 2.8930964e-07 -1.6707951e-07     57.10648     57.10648   -970.24732   -970.24732 -3.6448734e-07   -497263.39 2.7911814e-16      1499324 
       0.045      181    459.75313   -140.44918 2.1392574e-07 -1.3417369e-07     57.10648     57.10648   -969.13084   -969.13084 -2.5012032e-07   -497263.39 2.7911814e-16      1499324 
       0.046      182    459.75313   -138.47135 2.8047473e-07 -1.3045145e-07     57.10648     57.10648   -967.94734   -967.94734 -9.859009e-08   -497263.39 2.7911814e-16      1499324 
       0.047      183    459.75313   -136.59091 4.0032142e-07 -1.9080063e-07     57.10648     57.10648   -966.82906   -966.82906 -2.0484603e-08   -497263.39 2.7911814e-16      1499324 
       0.048      184    459.75313   -134.71571 2.8506494e-07 -1.8976751e-07     57.10648     57.10648   -965.71546   -965.71547 4.1348884e-08    -497263.4 2.7911814e-16      1499324 
       0.049      185    459.75313   -132.74762 3.2904148e-07 -1.6966064e-07     57.10648     57.10648   -964.53837   -964.53837 -3.5603385e-08    -497263.4 2.7911814e-16      1499324 
        0.05      186    459.75313   -130.88214 4.2594716e-07 -1.2088209e-07     57.10648     57.10648   -963.42787   -963.42787 -2.697377e-07    -497263.4 2.7911814e-16      1499324 
       0.051      187    459.75313   -128.98171 2.943208e-07 -7.0270541e-08     57.10648     57.10648   -962.29967   -962.29967 -3.173622e-07    -497263.4 2.7911814e-16      1499324 
       0.052      188    459.75313   -126.99752 3.5362658e-07 -1.1873587e-07     57.10648     57.10648   -961.11364   -961.11365 -3.0501648e-07    -497263.4 2.7911814e-16      1499324 
       0.053      189    459.75313   -125.12684 4.659863e-07 -1.9223688e-07     57.10648     57.10648   -959.99928   -959.99928 -2.3714286e-07    -497263.4 2.7911814e-16      1499324 
       0.054      190    459.75313   -123.22436 3.7076483e-07 -1.6851404e-07     57.10648     57.10648   -958.86974   -958.86974 -5.3932864e-08    -497263.4 2.7911814e-16      1499324 
       0.055      191    459.75313   -121.26113 5.1226922e-07 -2.0116372e-07     57.10648     57.10648    -957.6972    -957.6972 3.1630315e-08    -497263.4 2.7911814e-16      1499324 
       0.056      192    459.75313   -119.40395 6.2770805e-07 -2.4274664e-07     57.10648     57.10648   -956.58997   -956.58998 2.2016936e-09    -497263.4 2.7911814e-16      1499324 
       0.057      193    459.75313   -117.48646  4.79371e-07 -1.8657286e-07     57.10648     57.10648   -955.45133   -955.45133 -4.8187451e-08    -497263.4 2.7911814e-16      1499324 
       0.058      194    459.75313   -115.53014 5.846292e-07 -1.797571e-07     57.10648     57.10648   -954.28397   -954.28397 -4.2176367e-08    -497263.4 2.7911814e-16      1499324 
       0.059      195    459.75313   -113.66377 5.9878168e-07 -1.5945771e-07     57.10648     57.10648   -953.17053   -953.17053 2.8491649e-08    -497263.4 2.7911814e-16      1499324 
        0.06      196    459.75313   -111.72274 4.834665e-07 -1.0900294e-07     57.10648     57.10648    -952.0175    -952.0175 5.3353056e-08    -497263.4 2.7911814e-16      1499324 
       0.061      197    459.75313   -109.77399 6.9470782e-07 -1.1022631e-07     57.10648     57.10648    -950.8556    -950.8556 -1.9842544e-08    -497263.4 2.7911814e-16      1499324 
       0.062      198    459.75313   -107.91781 6.8920876e-07 -8.4777753e-08     57.10648     57.10648   -949.74782   -949.74782 -1.6485397e-07    -497263.4 2.7911814e-16      1499324 
       0.063      199    459.75313   -105.98619 4.6048435e-07 -2.463734e-08     57.10648     57.10648   -948.59972   -948.59972 -2.8634787e-07    -497263.4 2.7911814e-16      1499324 
       0.064      200    459.75313   -104.06591 5.4636734e-07 -3.3971041e-09     57.10648     57.10648   -947.45592   -947.45592 -3.7926563e-07    -497263.4 2.7911814e-16      1499324 
       0.065      201    459.75313    -102.2033 4.5794733e-07 -2.7952173e-08     57.10648     57.10648   -946.34396   -946.34396 -2.4921987e-07    -497263.4 2.7911814e-16      1499324 
       0.066      202    459.75313   -100.25012 2.8199357e-07 -6.0883743e-08     57.10648     57.10648    -945.1822    -945.1822 -9.0603724e-08    -497263.4 2.7911814e-16      1499324 
       0.067      203    459.75313   -98.326164 3.5412626e-07 -9.4510374e-08     57.10648     57.10648   -944.03716   -944.03717 3.6566596e-08    -497263.4 2.7911814e-16      1499324 
       0.068      204    459.75313   -96.450697 2.9347637e-07 -9.2186723e-08     57.10648     57.10648   -942.91755   -942.91755 1.7791173e-07    -497263.4 2.7911814e-16      1499324 
       0.069      205    459.75313   -94.493539 1.8345584e-07 -9.5986908e-08     57.10648     57.10648   -941.75251   -941.75251 1.9342415e-07    -497263.4 2.7911814e-16      1499324 
        0.07      206    459.75313   -92.577867 3.1438742e-07 -1.203876e-07     57.10648     57.10648   -940.61319   -940.61319 1.3601982e-07    -497263.4 2.7911814e-16      1499324 
       0.071      207    459.75313   -90.711374 3.3738584e-07 -7.4348194e-08     57.10648     57.10648   -939.49918   -939.49919 5.5965656e-08    -497263.4 2.7911814e-16      1499324 
       0.072      208    459.75313   -88.766662 2.3493902e-07 -5.4379027e-08     57.10648     57.10648   -938.34048   -938.34048 -8.7427066e-08    -497263.4 2.7911814e-16      1499324 
       0.073      209    459.75313   -86.860918 3.0194379e-07 -1.3062207e-07     57.10648     57.10648   -937.20775   -937.20775 -2.2730352e-07    -497263.4 2.7911814e-16      1499324 
       0.074      210    459.75313   -84.986875  3.09514e-07 -1.5286184e-07     57.10648     57.10648   -936.08974   -936.08974 -5.5464092e-08    -497263.4 2.7911814e-16      1499324 
       0.075      211    459.75313   -83.033535 2.2648311e-07 -9.7384603e-08     57.10648     57.10648   -934.92482   -934.92482 1.5381356e-07    -497263.4 2.7911814e-16      1499324 
       0.076      212    459.75313   -81.117217 2.5545129e-07 -7.4790163e-08     57.10648     57.10648   -933.78626   -933.78626 1.8272296e-07    -497263.4 2.7911814e-16      1499324 
       0.077      213    459.75313   -79.240384 2.7359243e-07 -1.1253092e-07     57.10648     57.10648   -932.66715   -932.66715 1.3602274e-07    -497263.4 2.7911814e-16      1499324 
       0.078      214    459.75313   -77.289194 2.6703725e-07 -1.698536e-07     57.10648     57.10648   -931.50263   -931.50263 1.1749405e-07    -497263.4 2.7911814e-16      1499324 
       0.079      215    459.75313   -75.376689 3.7348907e-07 -1.782162e-07     57.10648     57.10648   -930.36652   -930.36652 5.129161e-08    -497263.4 2.7911814e-16      1499324 
        0.08      216    459.75313   -73.514125 3.9941793e-07 -6.4944396e-08     57.10648     57.10648   -929.25663   -929.25663 1.4690525e-08    -497263.4 2.7911814e-16      1499324 
       0.081      217    459.75313   -71.566362 3.8529101e-07 -1.99953e-08     57.10648     57.10648    -928.0934    -928.0934 6.6370105e-08    -497263.4 2.7911814e-16      1499324 
       0.082      218    459.75313   -69.646855 5.3020413e-07 -8.1161846e-08     57.10648     57.10648   -926.95304   -926.95304 8.1099108e-08    -497263.4 2.7911814e-16      1499324 
       0.083      219    459.75313   -67.774788 5.6456017e-07 -9.3511624e-08     57.10648     57.10648    -925.8382    -925.8382 1.9155954e-08    -497263.4 2.7911814e-16      1499324 
       0.084      220    459.75313   -65.814487 5.4787965e-07 -9.4416243e-08     57.10648     57.10648   -924.66702   -924.66702 -4.4093385e-08    -497263.4 2.7911814e-16      1499324 
       0.085      221    459.75313   -63.897595 7.163868e-07 -1.9004368e-07     57.10648     57.10648   -923.52799   -923.52799 -9.7693665e-08    -497263.4 2.7911814e-16      1499324 
       0.086      222    459.75313    -62.04514 6.4810157e-07 -1.7615167e-07     57.10648     57.10648   -922.42543   -922.42543 -6.4838209e-08    -497263.4 2.7911814e-16      1499324 
       0.087      223    459.75313   -60.085299 4.7835065e-07 -1.0259138e-07     57.10648     57.10648   -921.25434   -921.25434 -1.0100522e-08    -497263.4 2.7911814e-16      1499324 
       0.088      224    459.75313   -58.162383 4.9620142e-07 -1.3976979e-07     57.10648     57.10648   -920.11124   -920.11124 8.2228012e-08    -497263.4 2.7911814e-16      1499324 
       0.089      225    459.75313    -56.30526 4.0579897e-07 -1.3955858e-07     57.10648     57.10648    -919.0064   -919.00641 2.3868631e-07    -497263.4 2.7911814e-16      1499324 
        0.09      226    459.75313   -54.339724 3.0191788e-07 -8.6560625e-08     57.10648     57.10648   -917.83204   -917.83204 2.8605654e-07    -497263.4 2.7911814e-16      1499324 
       0.091      227    459.75313   -52.408212 3.5678637e-07 -1.0937304e-07     57.10648     57.10648   -916.68322   -916.68322 2.0583512e-07    -497263.4 2.7911814e-16      1499324 
       0.092      228    459.75313   -50.541009 3.4977981e-07 -1.028564e-07     57.10648     57.10648   -915.57272   -915.57272 2.8897442e-08    -497263.4 2.7911814e-16      1499324 
       0.093      229    459.75313   -48.582807 2.9092174e-07 -3.1752202e-08     57.10648     57.10648   -914.40309   -914.40309 -4.1488761e-08    -497263.4 2.7911814e-16      1499324 
       0.094      230    459.75313   -46.665964 3.1105737e-07 -4.4682685e-08     57.10648     57.10648   -913.26226   -913.26226 -6.5950716e-09    -497263.4 2.7911814e-16      1499324 
       0.095      231    459.75313   -44.799357 2.9500806e-07 -1.0892943e-07     57.10648     57.10648   -912.15244   -912.15244 8.3060671e-08    -497263.4 2.7911814e-16      1499324 
       0.096      232    459.75313   -42.857488 2.8920706e-07 -8.2831921e-08     57.10648     57.10648   -910.99309   -910.99309 8.5522735e-08    -497263.4 2.7911814e-16      1499324 
       0.097      233    459.75313    -40.96003 2.7813399e-07 -4.9148208e-08     57.10648     57.10648   -909.86287   -909.86287 3.4806638e-08    -497263.4 2.7911814e-16      1499324 
       0.098      234    459.75313   -39.064831 1.7152502e-07 -8.1223118e-08     57.10648     57.10648   -908.73635   -908.73635 3.6412042e-08    -497263.4 2.7911814e-16      1499324 
       0.099      235    459.75313   -37.118058 1.3609921e-07 -7.9252745e-08     57.10648     57.10648   -907.57466   -907.57466 5.6310418e-08    -497263.4 2.7911814e-16      1499324 
         0.1      236    459.75313   -35.231862 1.6268252e-07 -2.229298e-08     57.10648     57.10648   -906.45042   -906.45042 7.463832e-08    -497263.4 2.7911814e-16      1499324 
       0.101      237    459.75313    -33.31407 1.3607937e-07 -3.0557559e-08     57.10648     57.10648   -905.31049   -905.31049 1.0274597e-07    -497263.4 2.7911814e-16      1499324 
       0.102      238    459.75313   -31.377394 1.3900256e-07 -7.3350878e-08     57.10648     57.10648   -904.15545   -904.15545 6.4059244e-08    -497263.4 2.7911814e-16      1499324 
       0.103      239    459.75313   -29.522702 1.259527e-07 -4.2666297e-08     57.10648     57.10648   -903.04943   -903.04943 -1.5058036e-08    -497263.4 2.7911814e-16      1499324 
       0.104      240    459.75313   -27.582964 8.4716915e-08 -1.4126542e-08     57.10648     57.10648   -901.89621   -901.89621 6.573328e-08    -497263.4 2.7911814e-16      1499324 
       0.105      241    459.75313   -25.628545 1.3247101e-07 -4.6678893e-08     57.10648     57.10648   -900.73129   -900.73129 2.2743905e-07    -497263.4 2.7911814e-16      1499324 
       0.106      242    459.75313   -23.788526 1.6309514e-07 -3.7223288e-08     57.10648     57.10648   -899.63374   -899.63374 1.4769748e-07    -497263.4 2.7911814e-16      1499324 
       0.107      243    459.75313   -21.849277 1.4246419e-07 3.4580231e-08     57.10648     57.10648   -898.48026   -898.48026 -8.1006523e-08    -497263.4 2.7911814e-16      1499324 
       0.108      244    459.75313   -19.871714 2.761732e-07 6.1571575e-08     57.10648     57.10648    -897.3024    -897.3024 -1.5172452e-07    -497263.4 2.7911814e-16      1499324 
       0.109      245    459.75313   -18.024436 3.8041017e-07 -6.5485267e-10     57.10648     57.10648   -896.20031   -896.20031 -1.4567639e-09    -497263.4 2.7911814e-16      1499324 
        0.11      246    459.75313   -16.126872 2.3255743e-07 -2.9149826e-08     57.10648     57.10648   -895.07097   -895.07098 1.0490378e-07    -497263.4 2.7911814e-16      1499324 
       0.111      247    459.75313   -14.168475 1.5931315e-07 -1.0526625e-08     57.10648     57.10648   -893.90546   -893.90546 7.9836556e-08    -497263.4 2.7911814e-16      1499324 
       0.112      248    459.75313   -12.267051 1.7514366e-07 -5.7622323e-08     57.10648     57.10648   -892.77081   -892.77081 6.9120519e-08    -497263.4 2.7911814e-16      1499324 
       0.113      249    459.75313   -10.353909 2.2476572e-07 -1.3139141e-07     57.10648     57.10648   -891.63174   -891.63174 4.7660054e-08    -497263.4 2.7911814e-16      1499324 
       0.114      250    459.75313   -8.4611591 2.2870595e-07 -1.2003854e-07     57.10648     57.10648   -890.50582   -890.50583 -4.0591041e-08    -497263.4 2.7911814e-16      1499324 
       0.115      251    459.75313   -6.5954111 1.162789e-07 -1.0798816e-07     57.10648     57.10648    -889.3927    -889.3927 -5.0619047e-08    -497263.4 2.7911814e-16      1499324 
       0.116      252    459.75313   -4.6872918 8.6409151e-08 -1.7428543e-07     57.10648     57.10648   -888.25578   -888.25578 1.8318576e-08    -497263.4 2.7911814e-16      1499324 
       0.117      253    459.75313   -2.9299838 1.7000815e-07 -2.4400092e-07     57.10648     57.10648   -887.21101   -887.21101 6.8978353e-08    -497263.4 2.7911814e-16      1499324 
       0.118      254    459.75313   -1.5399888 1.6491028e-07 -2.1123761e-07     57.10648     57.10648   -886.38157   -886.38157 8.6530915e-08    -497263.4 2.7911814e-16      1499324 
       0.119      255    459.75313  -0.59320278 4.7748872e-08 -1.2176504e-07     57.10648     57.10648   -885.81704   -885.81704 4.5441169e-08    -497263.4 2.7911814e-16      1499324 
        0.12      256    459.75313  -0.12901633 -5.1046443e-08 -4.994456e-08     57.10648     57.10648   -885.54171   -885.54171 7.0999399e-09    -497263.4 2.7911814e-16      1499324 
       0.121      257    459.75313  0.034170257 -1.1449627e-07 -1.7400559e-09     57.10648     57.10648   -885.44415   -885.44415 2.2459276e-09    -497263.4 2.7911814e-16      1499324 
       0.122      258    459.75313  0.078720079 -1.3467364e-07 1.208418e-08     57.10648     57.10648   -885.41735   -885.41735 8.9737667e-10    -497263.4 2.7911814e-16      1499324 
       0.123      259    459.75313  0.087402014 -1.3950325e-07 1.4918143e-08     57.10648     57.10648   -885.41235   -885.41235 8.0985795e-11    -497263.4 2.7911814e-16      1499324 
       0.124      260    459.75313  0.088820709 -1.4083266e-07 1.6137019e-08     57.10648     57.10648   -885.41151   -885.41151 4.3793081e-11    -497263.4 2.7911814e-16      1499324 
       0.125      261    459.75313  0.089009414 -1.4137889e-07 1.6862111e-08     57.10648     57.10648   -885.41137   -885.41137 1.2897144e-11    -497263.4 2.7911814e-16      1499324 
       0.126      262    459.75313  0.089024461 -1.4175581e-07 1.7415908e-08     57.10648     57.10648   -885.41136   -885.41136 8.7114177e-13    -497263.4 2.7911814e-16      1499324 
       0.127      263    459.75313  0.089020522 -1.4206924e-07 1.792753e-08     57.10648     57.10648   -885.41137   -885.41137 -4.7863172e-13    -497263.4 2.7911814e-16      1499324 
Loop time of 15.0817 on 64 procs for 126 steps with 120800 atoms

85.8% CPU use with 64 MPI tasks x 1 OpenMP threads

Minimization stats:
  Stopping criterion = energy tolerance
  Energy initial, next-to-last, final = 
     -497263.390685597  -497263.401315485  -497263.401315485
  Force two-norm initial, final = 0.028977000 1.6215988e-05
  Force max component initial, final = 0.00099978438 2.0372887e-07
  Final line search alpha, max atom move = 1.0000000 2.0372887e-07
  Iterations, force evaluations = 126 252

MPI task timing breakdown:
Section |  min time  |  avg time  |  max time  |%varavg| %total
---------------------------------------------------------------
Pair    | 6.5813     | 8.0128     | 9.3255     |  27.0 | 53.13
Neigh   | 0          | 0          | 0          |   0.0 |  0.00
Comm    | 3.0547     | 3.5592     | 5.614      |  38.8 | 23.60
Output  | 0.46642    | 0.46824    | 0.47147    |   0.1 |  3.10
Modify  | 0          | 0          | 0          |   0.0 |  0.00
Other   |            | 3.041      |            |       | 20.17

Nlocal:        1887.50 ave        2118 max         895 min
Histogram: 4 0 4 0 0 0 0 0 13 43
Nghost:        5040.94 ave        5487 max        2460 min
Histogram: 4 4 0 0 0 0 0 0 0 56
Neighs:         0.00000 ave           0 max           0 min
Histogram: 64 0 0 0 0 0 0 0 0 0
FullNghs:      314975.0 ave      355824 max      133690 min
Histogram: 4 0 4 0 0 0 0 0 1 55

Total # of neighbors = 20158400
Ave neighs/atom = 166.87417
Neighbor list builds = 0
Dangerous builds = 0
print 		"${boxlen} ${boxwidth} ${pressure} ${sigma} ${epsilon} ${current_time} $t" append ssminimize.txt
459.7531347164 57.10648 0.0890205215499039 0.0888998912178181 9.99950003332973e-05 0.127 2.79118136522399e-16
print 		"minimize end"
minimize end
unfix strain
#if "$i == 25" then quit
next j
jump SELF deformationLoop
#variable	i loop 25
variable	j loop 5
variable 	expRate equal 1+0.0001*$j
variable 	expRate equal 1+0.0001*2
fix strain 	all deform 1 x scale ${expRate}
fix strain 	all deform 1 x scale 1.0002
run 		1
459.7531347164 57.10648 0.089020521549694 0.0888998912176082 9.99950003332973e-05 0.001 2.79118136522399e-16
Per MPI rank memory allocation (min/avg/max) = 1.435 | 2.012 | 2.167 Mbytes
Time Step Lx Pxx Pxy Pxz Ly Lz Pyy Pzz Pyz TotEng Temp Volume 
       0.001      263    459.75313  0.089020522 -1.4206916e-07 1.7927275e-08     57.10648     57.10648   -885.41137   -885.41137 -4.4648123e-13    -497263.4 2.7911814e-16      1499324 
459.7531347164 57.10648 0.0890205062237063 0.0888998758916205 9.99950003332973e-05 0.002 1.89989644150663e-15
       0.002      264    459.84509  0.089002706 -1.4204023e-07 1.7924514e-08     57.10648     57.10648   -885.23432   -885.23432 -8.6133355e-13    -497263.4 1.8998964e-15    1499623.8 
Loop time of 0.074424 on 64 procs for 1 steps with 120800 atoms

Performance: 1.161 ns/day, 20.673 hours/ns, 13.437 timesteps/s
84.1% CPU use with 64 MPI tasks x 1 OpenMP threads

MPI task timing breakdown:
Section |  min time  |  avg time  |  max time  |%varavg| %total
---------------------------------------------------------------
Pair    | 0.023745   | 0.032352   | 0.037538   |   1.5 | 43.47
Neigh   | 0          | 0          | 0          |   0.0 |  0.00
Comm    | 0.011961   | 0.015402   | 0.020261   |   1.9 | 20.70
Output  | 0.0046878  | 0.0054111  | 0.0063044  |   0.6 |  7.27
Modify  | 0.0095714  | 0.014839   | 0.021422   |   2.5 | 19.94
Other   |            | 0.006419   |            |       |  8.63

Nlocal:        1887.50 ave        2110 max         893 min
Histogram: 4 0 4 0 0 0 0 0 3 53
Nghost:        5040.94 ave        5485 max        2457 min
Histogram: 4 4 0 0 0 0 0 0 0 56
Neighs:         0.00000 ave           0 max           0 min
Histogram: 64 0 0 0 0 0 0 0 0 0
FullNghs:      314975.0 ave      354480 max      133250 min
Histogram: 4 0 4 0 0 0 0 0 0 56

Total # of neighbors = 20158400
Ave neighs/atom = 166.87417
Neighbor list builds = 0
Dangerous builds = 0
print 		"${boxlen} ${boxwidth} ${pressure} ${sigma} ${epsilon} ${current_time} $t" append sstest.txt
459.845085343343 57.10648 0.0890027056825698 0.088882075350484 0.000299975002999642 0.002 1.89989644150663e-15
print 		"run 1 end"
run 1 end
minimize 	1.0e-30 1.0e-30 100000 100000
WARNING: Using 'neigh_modify every 1 delay 0 check yes' setting during minimization (../min.cpp:188)
Per MPI rank memory allocation (min/avg/max) = 1.667 | 2.489 | 2.679 Mbytes
Time Step Lx Pxx Pxy Pxz Ly Lz Pyy Pzz Pyz TotEng Temp Volume 
       0.002      264    459.84509   -454.35242 -1.4204388e-07 1.7925267e-08     57.10648     57.10648   -1156.3681   -1156.3681 3.6924558e-13   -497263.36 1.8998964e-15    1499623.8 
       0.003      265    459.84509   -449.75393 -1.4283221e-07 1.9324032e-08     57.10648     57.10648   -1153.0185   -1153.0185 7.6215323e-13   -497263.36 1.8998964e-15    1499623.8 
       0.004      266    459.84509   -445.09067 -1.4424158e-07 2.2031474e-08     57.10648     57.10648   -1150.3878   -1150.3878 1.4780521e-11   -497263.36 1.8998964e-15    1499623.8 
       0.005      267    459.84509    -440.4883 -1.4567441e-07 2.5409738e-08     57.10648     57.10648   -1147.5762   -1147.5762 1.788108e-10   -497263.36 1.8998964e-15    1499623.8 
       0.006      268    459.84509   -435.93902 -1.4456556e-07 2.6711996e-08     57.10648     57.10648   -1144.9059   -1144.9059 2.1155846e-09   -497263.36 1.8998964e-15    1499623.8 
       0.007      269    459.84509   -431.44332 -1.180824e-07 4.3510456e-09     57.10648     57.10648   -1142.2139   -1142.2139 2.2683312e-08   -497263.36 1.8998964e-15    1499623.8 
       0.008      270    459.84509   -427.02532 1.3890422e-07 -2.1894632e-07     57.10648     57.10648   -1139.5766   -1139.5766 2.1661154e-07   -497263.36 1.8998964e-15    1499623.8 
       0.009      271    459.84509   -422.83493 1.9479382e-06 -1.6886109e-06     57.10648     57.10648   -1137.1018   -1137.1018 1.5885014e-06   -497263.36 1.8998964e-15    1499623.8 
        0.01      272    459.84509   -419.33951  4.92114e-06 -3.7674142e-06     57.10648     57.10648   -1135.0048   -1135.0048 3.865188e-06   -497263.36 1.8998964e-15    1499623.8 
       0.011      273    459.84509   -415.70905 1.797052e-06 -1.1032305e-06     57.10648     57.10648   -1132.8338   -1132.8338 1.5023118e-06   -497263.36 1.8998964e-15    1499623.8 
       0.012      274    459.84509   -411.46423 6.2554541e-07 -3.2690229e-07     57.10648     57.10648   -1130.3338   -1130.3338 5.9972497e-07   -497263.36 1.8998964e-15    1499623.8 
       0.013      275    459.84509   -407.31703 1.4459519e-06 -1.6093246e-06     57.10648     57.10648   -1127.8374   -1127.8374 1.1844526e-06   -497263.36 1.8998964e-15    1499623.8 
       0.014      276    459.84509   -403.83363 2.1688511e-06 -2.8922141e-06     57.10648     57.10648   -1125.7683   -1125.7683 1.6991028e-06   -497263.36 1.8998964e-15    1499623.8 
       0.015      277    459.84509    -400.0235 6.9334654e-07 -1.070957e-06     57.10648     57.10648   -1123.5189   -1123.5189 6.381137e-07   -497263.36 1.8998964e-15    1499623.8 
       0.016      278    459.84509   -395.79829 5.431364e-07 -1.2437803e-06     57.10648     57.10648   -1120.9773   -1120.9773 6.7842698e-07   -497263.36 1.8998964e-15    1499623.8 
       0.017      279    459.84509   -392.04027 1.2038376e-06 -2.9907564e-06     57.10648     57.10648   -1118.7502   -1118.7502 1.6759943e-06   -497263.36 1.8998964e-15    1499623.8 
       0.018      280    459.84509   -388.45555 6.2816306e-07 -1.5318491e-06     57.10648     57.10648   -1116.6271   -1116.6271 1.0535777e-06   -497263.36 1.8998964e-15    1499623.8 
       0.019      281    459.84509   -384.30444 3.4369837e-07 -7.6909522e-07     57.10648     57.10648   -1114.1343   -1114.1343 3.7027804e-07   -497263.37 1.8998964e-15    1499623.8 
        0.02      282    459.84509   -380.35762 9.1554454e-07 -1.8672461e-06     57.10648     57.10648   -1111.7948   -1111.7948 3.1590895e-07   -497263.37 1.8998964e-15    1499623.8 
       0.021      283    459.84509   -376.81499 8.8183732e-07 -1.4582672e-06     57.10648     57.10648   -1109.6919   -1109.6919 5.6348315e-07   -497263.37 1.8998964e-15    1499623.8 
       0.022      284    459.84509   -372.81955 4.8305705e-07 -6.5156629e-07     57.10648     57.10648   -1107.2975   -1107.2975 4.5387556e-07   -497263.37 1.8998964e-15    1499623.8 
       0.023      285    459.84509   -368.88324 7.9575246e-07 -1.8346519e-06     57.10648     57.10648   -1104.9605   -1104.9605 2.1766245e-07   -497263.37 1.8998964e-15    1499623.8 
       0.024      286    459.84509   -365.29212 7.048243e-07 -1.977368e-06     57.10648     57.10648   -1102.8285   -1102.8285 3.2562563e-07   -497263.37 1.8998964e-15    1499623.8 
       0.025      287    459.84509   -361.31201 3.2071438e-07 -8.3889615e-07     57.10648     57.10648    -1100.447    -1100.447 4.6644067e-07   -497263.37 1.8998964e-15    1499623.8 
       0.026      288    459.84509   -357.33393 5.0195565e-07 -1.114444e-06     57.10648     57.10648   -1098.0818   -1098.0818 2.8974967e-07   -497263.37 1.8998964e-15    1499623.8 
       0.027      289    459.84509   -353.73768 6.1247672e-07 -1.433918e-06     57.10648     57.10648   -1095.9463   -1095.9463 2.2434064e-07   -497263.37 1.8998964e-15    1499623.8 
       0.028      290    459.84509   -349.84873 3.8137221e-07 -7.9761112e-07     57.10648     57.10648   -1093.6232   -1093.6232 4.5243287e-07   -497263.37 1.8998964e-15    1499623.8 
       0.029      291    459.84509   -345.86618 6.6600448e-07 -8.9678772e-07     57.10648     57.10648   -1091.2508   -1091.2508 5.4179718e-07   -497263.37 1.8998964e-15    1499623.8 
        0.03      292    459.84509   -342.19466 1.0605847e-06 -1.2755431e-06     57.10648     57.10648   -1089.0714   -1089.0714 6.8977685e-07   -497263.37 1.8998964e-15    1499623.8 
       0.031      293    459.84509   -338.36595 8.1897017e-07 -1.0207262e-06     57.10648     57.10648   -1086.7875   -1086.7875 8.7190708e-07   -497263.37 1.8998964e-15    1499623.8 
       0.032      294    459.84509   -334.41351 8.5730065e-07 -1.1532489e-06     57.10648     57.10648   -1084.4292   -1084.4292 8.7065468e-07   -497263.37 1.8998964e-15    1499623.8 
       0.033      295    459.84509   -330.67685 1.0893761e-06 -1.4916798e-06     57.10648     57.10648   -1082.2117   -1082.2117 5.3370724e-07   -497263.37 1.8998964e-15    1499623.8 
       0.034      296    459.84509   -326.87143 9.5493323e-07 -1.2821371e-06     57.10648     57.10648   -1079.9443   -1079.9443 1.7394375e-07   -497263.37 1.8998964e-15    1499623.8 
       0.035      297    459.84509   -322.96846 1.007642e-06 -1.3856282e-06     57.10648     57.10648   -1077.6126   -1077.6126 -1.198909e-07   -497263.37 1.8998964e-15    1499623.8 
       0.036      298    459.84509   -319.22213 1.2384771e-06 -1.6881488e-06     57.10648     57.10648   -1075.3891   -1075.3891 -1.1373434e-07   -497263.37 1.8998964e-15    1499623.8 
       0.037      299    459.84509   -315.39748 1.1872013e-06 -1.3477317e-06     57.10648     57.10648   -1073.1132   -1073.1132 2.8242801e-07   -497263.37 1.8998964e-15    1499623.8 
       0.038      300    459.84509   -311.48012 1.322486e-06 -9.9057799e-07     57.10648     57.10648   -1070.7708   -1070.7709 3.7443129e-07   -497263.37 1.8998964e-15    1499623.8 
       0.039      301    459.84509   -307.74497 1.5290778e-06 -8.0427459e-07     57.10648     57.10648   -1068.5531   -1068.5531 1.7192766e-07   -497263.37 1.8998964e-15    1499623.8 
        0.04      302    459.84509   -303.94235 1.2019559e-06 -7.3513753e-07     57.10648     57.10648   -1066.2929   -1066.2929 7.3464189e-08   -497263.37 1.8998964e-15    1499623.8 
       0.041      303    459.84509   -300.01289 9.4118003e-07 -9.4449268e-07     57.10648     57.10648   -1063.9421   -1063.9421 -9.6739592e-08   -497263.37 1.8998964e-15    1499623.8 
       0.042      304    459.84509   -296.28002 8.7016114e-07 -1.0137339e-06     57.10648     57.10648   -1061.7243   -1061.7243 -9.6555206e-08   -497263.37 1.8998964e-15    1499623.8 
       0.043      305    459.84509   -292.47653 8.2918626e-07 -6.7453999e-07     57.10648     57.10648   -1059.4656   -1059.4656 4.2449107e-07   -497263.37 1.8998964e-15    1499623.8 
       0.044      306    459.84509   -288.52261 9.9139765e-07 -8.6137384e-07     57.10648     57.10648      -1057.1      -1057.1 8.0762442e-07   -497263.37 1.8998964e-15    1499623.8 
       0.045      307    459.84509    -284.7901   1.1296e-06 -1.2792008e-06     57.10648     57.10648    -1054.881    -1054.881 7.1893103e-07   -497263.37 1.8998964e-15    1499623.8 
       0.046      308    459.84509   -280.99293 1.0092349e-06 -1.0305505e-06     57.10648     57.10648   -1052.6273   -1052.6273 3.4757415e-07   -497263.38 1.8998964e-15    1499623.8 
       0.047      309    459.84509   -277.03977 1.2436589e-06 -1.1145071e-06     57.10648     57.10648   -1050.2627   -1050.2627 1.0708313e-07   -497263.38 1.8998964e-15    1499623.8 
       0.048      310    459.84509   -273.32403 1.3169931e-06 -1.3045398e-06     57.10648     57.10648   -1048.0519   -1048.0519 -1.4586851e-07   -497263.38 1.8998964e-15    1499623.8 
       0.049      311    459.84509   -269.51708 8.676761e-07 -8.4391962e-07     57.10648     57.10648    -1045.793    -1045.793 -1.8046916e-07   -497263.38 1.8998964e-15    1499623.8 
        0.05      312    459.84509   -265.55324 9.1826404e-07 -7.2806639e-07     57.10648     57.10648   -1043.4234   -1043.4234 -2.5473443e-07   -497263.38 1.8998964e-15    1499623.8 
       0.051      313    459.84509   -261.82814 9.8849177e-07 -8.5600561e-07     57.10648     57.10648   -1041.2055   -1041.2055 -1.6017196e-07   -497263.38 1.8998964e-15    1499623.8 
       0.052      314    459.84509   -258.01759 6.0139953e-07 -7.7632598e-07     57.10648     57.10648   -1038.9444   -1038.9444 3.2505278e-07   -497263.38 1.8998964e-15    1499623.8 
       0.053      315    459.84509   -254.08708 4.9146551e-07 -1.0203165e-06     57.10648     57.10648   -1036.5965   -1036.5965 6.3232862e-07   -497263.38 1.8998964e-15    1499623.8 
       0.054      316    459.84509   -250.36413 4.4542575e-07 -1.1791589e-06     57.10648     57.10648   -1034.3779   -1034.3779  3.38174e-07   -497263.38 1.8998964e-15    1499623.8 
       0.055      317    459.84509   -246.52266 3.6548181e-07 -8.062418e-07     57.10648     57.10648   -1032.0983   -1032.0983 -1.330864e-07   -497263.38 1.8998964e-15    1499623.8 
       0.056      318    459.84509   -242.63359 4.5114099e-07 -7.9330326e-07     57.10648     57.10648   -1029.7772   -1029.7772 -1.4783842e-07   -497263.38 1.8998964e-15    1499623.8 
       0.057      319    459.84509    -238.9243 2.9798222e-07 -8.9939285e-07     57.10648     57.10648    -1027.565    -1027.565 3.8677817e-07   -497263.38 1.8998964e-15    1499623.8 
       0.058      320    459.84509   -235.03822 1.2221549e-07 -6.8464026e-07     57.10648     57.10648   -1025.2583   -1025.2583 9.494715e-07   -497263.38 1.8998964e-15    1499623.8 
       0.059      321    459.84509   -231.15022 3.3663919e-07 -5.1527027e-07     57.10648     57.10648   -1022.9399   -1022.9399 1.5272637e-06   -497263.38 1.8998964e-15    1499623.8 
        0.06      322    459.84509   -227.42076 5.9411371e-07 -5.4991346e-07     57.10648     57.10648   -1020.7146   -1020.7146 1.3602356e-06   -497263.38 1.8998964e-15    1499623.8 
       0.061      323    459.84509   -223.51941 7.5751558e-07 -8.1558233e-07     57.10648     57.10648   -1018.3976   -1018.3976 5.5852281e-07   -497263.38 1.8998964e-15    1499623.8 
       0.062      324    459.84509   -219.67065 1.2188496e-06 -1.0736024e-06     57.10648     57.10648   -1016.1047   -1016.1047 3.840274e-08   -497263.38 1.8998964e-15    1499623.8 
       0.063      325    459.84509   -215.95039 1.2664412e-06 -8.7556509e-07     57.10648     57.10648   -1013.8843   -1013.8843 2.3622567e-07   -497263.38 1.8998964e-15    1499623.8 
       0.064      326    459.84509   -212.04447 1.2258893e-06 -8.2733648e-07     57.10648     57.10648    -1011.563    -1011.563 7.1224617e-07   -497263.38 1.8998964e-15    1499623.8 
       0.065      327    459.84509   -208.20992 1.6890172e-06 -1.0604842e-06     57.10648     57.10648   -1009.2805   -1009.2805 9.8546359e-07   -497263.38 1.8998964e-15    1499623.8 
       0.066      328    459.84509   -204.46096 1.578111e-06 -8.3511643e-07     57.10648     57.10648   -1007.0428   -1007.0428 6.6241319e-07   -497263.38 1.8998964e-15    1499623.8 
       0.067      329    459.84509   -200.55533 1.2980889e-06 -4.4965716e-07     57.10648     57.10648   -1004.7198   -1004.7198 1.8085678e-07   -497263.38 1.8998964e-15    1499623.8 
       0.068      330    459.84509   -196.73588 1.5437796e-06 -1.8129033e-07     57.10648     57.10648   -1002.4482   -1002.4482 -4.072233e-08   -497263.38 1.8998964e-15    1499623.8 
       0.069      331    459.84509   -192.97201 1.586624e-06 -7.7128101e-08     57.10648     57.10648   -1000.2018   -1000.2018 1.7224964e-07   -497263.38 1.8998964e-15    1499623.8 
        0.07      332    459.84509   -189.09412 1.4838958e-06 -1.5342558e-07     57.10648     57.10648   -997.89336   -997.89336 4.9546977e-07   -497263.38 1.8998964e-15    1499623.8 
       0.071      333    459.84509   -185.30683 1.4282097e-06 -1.3725467e-07     57.10648     57.10648   -995.64228   -995.64229 8.9375622e-07   -497263.38 1.8998964e-15    1499623.8 
       0.072      334    459.84509    -181.5132 1.1182194e-06 -5.3915124e-08     57.10648     57.10648   -993.37905   -993.37905 1.1049893e-06   -497263.38 1.8998964e-15    1499623.8 
       0.073      335    459.84509   -177.62578 9.8979322e-07 -2.0866991e-07     57.10648     57.10648   -991.06282   -991.06282 1.0250968e-06   -497263.38 1.8998964e-15    1499623.8 
       0.074      336    459.84509   -173.83892 1.1345586e-06 -4.2417242e-07     57.10648     57.10648   -988.81287   -988.81287 9.5254567e-07   -497263.39 1.8998964e-15    1499623.8 
       0.075      337    459.84509    -170.0305 1.1503001e-06 -3.7567913e-07     57.10648     57.10648   -986.54215   -986.54215 9.6689454e-07   -497263.39 1.8998964e-15    1499623.8 
       0.076      338    459.84509   -166.14562 1.1235355e-06 -3.135666e-07     57.10648     57.10648   -984.22551   -984.22551 6.2890744e-07   -497263.39 1.8998964e-15    1499623.8 
       0.077      339    459.84509   -162.37261 1.1595657e-06 -4.3755913e-07     57.10648     57.10648   -981.98409   -981.98409 7.0532323e-08   -497263.39 1.8998964e-15    1499623.8 
       0.078      340    459.84509   -158.58108 1.1756945e-06 -6.9372956e-07     57.10648     57.10648   -979.72514   -979.72514 4.672657e-07   -497263.39 1.8998964e-15    1499623.8 
       0.079      341    459.84509   -154.70197 1.1638139e-06 -9.0408698e-07     57.10648     57.10648   -977.41017   -977.41017 1.3066138e-06   -497263.39 1.8998964e-15    1499623.8 
        0.08      342    459.84509   -150.91539 8.5688799e-07 -7.539818e-07     57.10648     57.10648   -975.16047   -975.16048 1.3360293e-06   -497263.39 1.8998964e-15    1499623.8 
       0.081      343    459.84509   -147.11336 4.1899195e-07 -5.0207804e-07     57.10648     57.10648   -972.89706   -972.89706 6.6408236e-07   -497263.39 1.8998964e-15    1499623.8 
       0.082      344    459.84509   -143.21744 2.6520535e-07 -8.0178321e-07     57.10648     57.10648   -970.57086   -970.57086 2.0082452e-07   -497263.39 1.8998964e-15    1499623.8 
       0.083      345    459.84509    -139.4081 1.3746645e-07 -1.143072e-06     57.10648     57.10648   -968.30703   -968.30703 -2.9336607e-07   -497263.39 1.8998964e-15    1499623.8 
       0.084      346    459.84509   -135.60941 -6.3011298e-08 -6.9114905e-07     57.10648     57.10648   -966.04706   -966.04707 -4.1673119e-07   -497263.39 1.8998964e-15    1499623.8 
       0.085      347    459.84509   -131.72264 3.2011391e-08 -2.0434234e-07     57.10648     57.10648   -963.72579    -963.7258 8.6878715e-08   -497263.39 1.8998964e-15    1499623.8 
       0.086      348    459.84509   -127.92539 4.9275811e-07 -2.80288e-07     57.10648     57.10648   -961.46805   -961.46805 6.3101568e-07   -497263.39 1.8998964e-15    1499623.8 
       0.087      349    459.84509   -124.14489 8.1099887e-07 -5.2981367e-07     57.10648     57.10648   -959.22033   -959.22033 5.4374193e-07   -497263.39 1.8998964e-15    1499623.8 
       0.088      350    459.84509   -120.27357 9.8650731e-07 -5.307808e-07     57.10648     57.10648    -956.9084   -956.90841 1.0285555e-07   -497263.39 1.8998964e-15    1499623.8 
       0.089      351    459.84509   -116.46084 1.2807359e-06 -4.3742098e-07     57.10648     57.10648   -954.63977   -954.63978 -2.3821918e-07   -497263.39 1.8998964e-15    1499623.8 
        0.09      352    459.84509   -112.64295 1.4993829e-06 -5.0087872e-07     57.10648     57.10648   -952.37103   -952.37104 -1.145518e-07   -497263.39 1.8998964e-15    1499623.8 
       0.091      353    459.84509   -108.79955 1.6838617e-06 -7.6238717e-07     57.10648     57.10648   -950.07638   -950.07638 1.8761568e-07   -497263.39 1.8998964e-15    1499623.8 
       0.092      354    459.84509   -105.01972 1.5608816e-06 -9.2044894e-07     57.10648     57.10648   -947.82543   -947.82543 3.6301903e-07   -497263.39 1.8998964e-15    1499623.8 
[...]
       0.152     1094    460.39712    2.1157729 -2.3716122e-06 1.1280412e-06     57.10648     57.10648   -882.96511   -882.96511 -3.4483267e-11    -497263.4 9.0462133e-15    1501424.1 
       0.153     1095    460.39712    2.0989523 -2.2324801e-06 1.0335298e-06     57.10648     57.10648   -882.97514   -882.97514 -2.6090923e-12    -497263.4 9.0462133e-15    1501424.1 
       0.154     1096    460.39712    2.0825496 -2.0677199e-06 9.3101793e-07     57.10648     57.10648   -882.98489   -882.98489 1.9170813e-11    -497263.4 9.0462133e-15    1501424.1 
       0.155     1097    460.39712    2.0525479 -1.7349916e-06 7.6541033e-07     57.10648     57.10648   -883.00278   -883.00278 -4.8488313e-12    -497263.4 9.0462133e-15    1501424.1 
       0.156     1098    460.39712    2.0335274 -1.5100648e-06 7.0313352e-07     57.10648     57.10648   -883.01414   -883.01414 -3.089795e-12    -497263.4 9.0462133e-15    1501424.1 
       0.157     1099    460.39712    2.0013145 -1.1310752e-06 6.6280713e-07     57.10648     57.10648   -883.03331   -883.03331 1.2205138e-11    -497263.4 9.0462133e-15    1501424.1 
       0.158     1100    460.39712    1.9771327 -8.827561e-07 6.3384764e-07     57.10648     57.10648   -883.04771   -883.04771 -3.2220604e-12    -497263.4 9.0462133e-15    1501424.1 
       0.159     1101    460.39712    1.9368495 -5.7103782e-07 5.2730903e-07     57.10648     57.10648   -883.07174   -883.07174 4.0005692e-11    -497263.4 9.0462133e-15    1501424.1 
        0.16     1102    460.39712     1.900757 -3.4438638e-07 3.7104468e-07     57.10648     57.10648   -883.09324   -883.09324 5.0222942e-11    -497263.4 9.0462133e-15    1501424.1 
       0.161     1103    460.39712    1.8659801 -1.9158262e-07 1.1649622e-07     57.10648     57.10648   -883.11393   -883.11393 1.4315159e-10    -497263.4 9.0462133e-15    1501424.1 
       0.162     1104    460.39712    1.8177429 -3.3909669e-09 -2.6766087e-07     57.10648     57.10648    -883.1427    -883.1427 9.4782605e-11    -497263.4 9.0462133e-15    1501424.1 
       0.163     1105    460.39712    1.7788904 1.5705852e-07 -5.2786528e-07     57.10648     57.10648   -883.16586   -883.16586 1.4440564e-10    -497263.4 9.0462133e-15    1501424.1 
       0.164     1106    460.39712    1.7190201 4.1572371e-07 -8.4557733e-07     57.10648     57.10648    -883.2015    -883.2015 9.5661451e-11    -497263.4 9.0462133e-15    1501424.1 
       0.165     1107    460.39712    1.6827305 5.6791517e-07 -9.7942337e-07     57.10648     57.10648   -883.22315   -883.22315 1.3364405e-10    -497263.4 9.0462133e-15    1501424.1 
       0.166     1108    460.39712    1.6158842 8.2936481e-07 -1.1610557e-06     57.10648     57.10648   -883.26301   -883.26301 1.7696167e-10    -497263.4 9.0462133e-15    1501424.1 
       0.167     1109    460.39712    1.5715376 9.9380012e-07 -1.3048701e-06     57.10648     57.10648   -883.28939   -883.28939 1.0829752e-10    -497263.4 9.0462133e-15    1501424.1 
       0.168     1110    460.39712    1.5051342 1.2412666e-06 -1.625024e-06     57.10648     57.10648   -883.32894   -883.32894 8.6015491e-11    -497263.4 9.0462133e-15    1501424.1 
       0.169     1111    460.39712     1.458358 1.4382584e-06 -1.9157928e-06     57.10648     57.10648   -883.35685   -883.35685 -2.2883569e-12    -497263.4 9.0462133e-15    1501424.1 
        0.17     1112    460.39712    1.3946293 1.7574545e-06 -2.3725233e-06     57.10648     57.10648    -883.3948    -883.3948 -3.1443244e-11    -497263.4 9.0462133e-15    1501424.1 
       0.171     1113    460.39712    1.3358488 2.0351263e-06 -2.7287896e-06     57.10648     57.10648   -883.42983   -883.42983 -3.2311855e-11    -497263.4 9.0462133e-15    1501424.1 
       0.172     1114    460.39712    1.2797685   2.1956e-06 -2.8956736e-06     57.10648     57.10648   -883.46328   -883.46328 -2.0495539e-10    -497263.4 9.0462133e-15    1501424.1 
       0.173     1115    460.39712    1.2237019 2.2626122e-06 -3.0025137e-06     57.10648     57.10648   -883.49666   -883.49666 -6.7542824e-11    -497263.4 9.0462133e-15    1501424.1 
       0.174     1116    460.39712    1.1706309 2.2237764e-06 -3.1036986e-06     57.10648     57.10648   -883.52824   -883.52824 -1.6646655e-10    -497263.4 9.0462133e-15    1501424.1 
       0.175     1117    460.39712    1.1101303 2.1761708e-06 -3.2227724e-06     57.10648     57.10648   -883.56433   -883.56433 -1.3504477e-10    -497263.4 9.0462133e-15    1501424.1 
       0.176     1118    460.39712    1.0620732 2.2220867e-06 -3.345649e-06     57.10648     57.10648   -883.59298   -883.59298 -2.338713e-10    -497263.4 9.0462133e-15    1501424.1 
       0.177     1119    460.39712     1.011069 2.3546063e-06 -3.5576019e-06     57.10648     57.10648   -883.62335   -883.62335 -1.403838e-10    -497263.4 9.0462133e-15    1501424.1 
       0.178     1120    460.39712   0.96465147 2.5539826e-06 -3.836918e-06     57.10648     57.10648   -883.65103   -883.65103 -2.5730091e-10    -497263.4 9.0462133e-15    1501424.1 
       0.179     1121    460.39712   0.91539673 2.7876546e-06 -4.0762387e-06     57.10648     57.10648   -883.68038   -883.68038 -9.3545647e-11    -497263.4 9.0462133e-15    1501424.1 
        0.18     1122    460.39712   0.87175858 2.9315834e-06 -4.1142501e-06     57.10648     57.10648   -883.70633   -883.70633 -1.2454199e-10    -497263.4 9.0462133e-15    1501424.1 
       0.181     1123    460.39712   0.83270847 2.954734e-06 -4.1160929e-06     57.10648     57.10648   -883.72963   -883.72963 -3.8641954e-11    -497263.4 9.0462133e-15    1501424.1 
       0.182     1124    460.39712   0.79237507 2.8349525e-06 -4.1876417e-06     57.10648     57.10648    -883.7537    -883.7537 -2.375035e-11    -497263.4 9.0462133e-15    1501424.1 
       0.183     1125    460.39712   0.75420797 2.685616e-06 -4.2563837e-06     57.10648     57.10648   -883.77641   -883.77641 -9.1596865e-12    -497263.4 9.0462133e-15    1501424.1 
       0.184     1126    460.39712   0.71992085 2.5599676e-06 -4.2740509e-06     57.10648     57.10648   -883.79683   -883.79683 9.2180803e-12    -497263.4 9.0462133e-15    1501424.1 
       0.185     1127    460.39712   0.68859148 2.4463082e-06 -4.3205014e-06     57.10648     57.10648   -883.81551   -883.81551 2.0992557e-11    -497263.4 9.0462133e-15    1501424.1 
       0.186     1128    460.39712   0.65730646 2.3657215e-06 -4.4148678e-06     57.10648     57.10648   -883.83413   -883.83413 1.4858356e-11    -497263.4 9.0462133e-15    1501424.1 
       0.187     1129    460.39712   0.62848315 2.3689643e-06 -4.4039971e-06     57.10648     57.10648   -883.85131   -883.85131 1.673071e-11    -497263.4 9.0462133e-15    1501424.1 
       0.188     1130    460.39712   0.60081989 2.4361444e-06 -4.2203535e-06     57.10648     57.10648   -883.86783   -883.86783 5.7525766e-12    -497263.4 9.0462133e-15    1501424.1 
       0.189     1131    460.39712   0.57799889 2.4412353e-06 -4.0637625e-06     57.10648     57.10648   -883.88141   -883.88141 -8.4959366e-12    -497263.4 9.0462133e-15    1501424.1 
        0.19     1132    460.39712   0.55247024 2.3591564e-06 -3.9932184e-06     57.10648     57.10648    -883.8966    -883.8966 5.5717372e-12    -497263.4 9.0462133e-15    1501424.1 
       0.191     1133    460.39712   0.53171282 2.2825771e-06 -3.97272e-06     57.10648     57.10648   -883.90899   -883.90899 8.9355082e-12    -497263.4 9.0462133e-15    1501424.1 
       0.192     1134    460.39712   0.50847389 2.2024095e-06 -3.9268278e-06     57.10648     57.10648   -883.92283   -883.92283 -6.4356568e-12    -497263.4 9.0462133e-15    1501424.1 
       0.193     1135    460.39712   0.49165925 2.1224901e-06 -3.9030475e-06     57.10648     57.10648   -883.93283   -883.93283 -4.433375e-12    -497263.4 9.0462133e-15    1501424.1 
       0.194     1136    460.39712   0.47040328 2.0415291e-06 -3.9219484e-06     57.10648     57.10648   -883.94552   -883.94552 -5.39498e-12    -497263.4 9.0462133e-15    1501424.1 
       0.195     1137    460.39712   0.45406264 2.0858405e-06 -3.9285995e-06     57.10648     57.10648   -883.95527   -883.95527 -1.8976934e-11    -497263.4 9.0462133e-15    1501424.1 
       0.196     1138    460.39712   0.43593665  2.22476e-06 -3.8361785e-06     57.10648     57.10648   -883.96605   -883.96605 -8.3826075e-12    -497263.4 9.0462133e-15    1501424.1 
       0.197     1139    460.39712   0.42118876 2.3402746e-06 -3.6397962e-06     57.10648     57.10648   -883.97485   -883.97485 -1.5361429e-11    -497263.4 9.0462133e-15    1501424.1 
       0.198     1140    460.39712   0.40579488 2.4249046e-06 -3.4475194e-06     57.10648     57.10648   -883.98402   -883.98402 -5.3999345e-12    -497263.4 9.0462133e-15    1501424.1 
       0.199     1141    460.39712   0.39043473 2.4553365e-06 -3.3726442e-06     57.10648     57.10648   -883.99315   -883.99315 -8.0120526e-12    -497263.4 9.0462133e-15    1501424.1 
         0.2     1142    460.39712   0.37702808 2.4371079e-06 -3.3099871e-06     57.10648     57.10648   -884.00115   -884.00115 -9.4638977e-12    -497263.4 9.0462133e-15    1501424.1 
       0.201     1143    460.39712   0.36319063 2.3776666e-06 -3.1586408e-06     57.10648     57.10648   -884.00941   -884.00941 -1.3219832e-11    -497263.4 9.0462133e-15    1501424.1 
       0.202     1144    460.39712   0.35101663 2.3351647e-06 -3.021328e-06     57.10648     57.10648   -884.01666   -884.01666 -6.6771146e-12    -497263.4 9.0462133e-15    1501424.1 
       0.203     1145    460.39712    0.3370765 2.3239324e-06 -2.9247246e-06     57.10648     57.10648   -884.02496   -884.02496 -1.0680201e-11    -497263.4 9.0462133e-15    1501424.1 
       0.204     1146    460.39712   0.32607914 2.3300697e-06 -2.8327403e-06     57.10648     57.10648   -884.03152   -884.03152 -4.1045033e-13    -497263.4 9.0462133e-15    1501424.1 
       0.205     1147    460.39712    0.3134758 2.3534589e-06 -2.6467614e-06     57.10648     57.10648   -884.03902   -884.03902 -2.7242713e-12    -497263.4 9.0462133e-15    1501424.1 
       0.206     1148    460.39712   0.30292307 2.3847405e-06 -2.4791072e-06     57.10648     57.10648    -884.0453    -884.0453 -9.6510396e-12    -497263.4 9.0462133e-15    1501424.1 
       0.207     1149    460.39712   0.29041966 2.4009108e-06 -2.3620092e-06     57.10648     57.10648   -884.05277   -884.05277 -1.4966805e-12    -497263.4 9.0462133e-15    1501424.1 
       0.208     1150    460.39712   0.27991346 2.3657777e-06 -2.3690516e-06     57.10648     57.10648   -884.05902   -884.05902 -3.0080378e-12    -497263.4 9.0462133e-15    1501424.1 
       0.209     1151    460.39712   0.26900734 2.326005e-06 -2.3769337e-06     57.10648     57.10648   -884.06551   -884.06551 -8.7164026e-15    -497263.4 9.0462133e-15    1501424.1 
        0.21     1152    460.39712   0.25849304 2.3294879e-06 -2.3065662e-06     57.10648     57.10648   -884.07178   -884.07178 4.7725898e-12    -497263.4 9.0462133e-15    1501424.1 
       0.211     1153    460.39712    0.2476144 2.3406011e-06 -2.2284375e-06     57.10648     57.10648   -884.07826   -884.07826 1.6094548e-12    -497263.4 9.0462133e-15    1501424.1 
       0.212     1154    460.39712   0.23708723 2.334919e-06 -2.1912836e-06     57.10648     57.10648   -884.08453   -884.08453 -3.5587104e-12    -497263.4 9.0462133e-15    1501424.1 
       0.213     1155    460.39712   0.22742067 2.3403464e-06 -2.1237132e-06     57.10648     57.10648   -884.09031   -884.09031 1.7747143e-12    -497263.4 9.0462133e-15    1501424.1 
       0.214     1156    460.39712   0.21642908 2.3639807e-06 -1.9696227e-06     57.10648     57.10648   -884.09686   -884.09686 6.1692953e-13    -497263.4 9.0462133e-15    1501424.1 
       0.215     1157    460.39712   0.20729917 2.3582487e-06 -1.8722397e-06     57.10648     57.10648   -884.10229   -884.10229 -8.6768695e-14    -497263.4 9.0462133e-15    1501424.1 
       0.216     1158    460.39712   0.19620483 2.3213201e-06 -1.8477463e-06     57.10648     57.10648    -884.1089    -884.1089 -2.8929248e-12    -497263.4 9.0462133e-15    1501424.1 
       0.217     1159    460.39712   0.18767508 2.3124511e-06 -1.8570824e-06     57.10648     57.10648   -884.11398   -884.11398 -5.6943555e-12    -497263.4 9.0462133e-15    1501424.1 
       0.218     1160    460.39712   0.17724966 2.3216086e-06 -1.8529012e-06     57.10648     57.10648   -884.12019   -884.12019 -9.7685794e-13    -497263.4 9.0462133e-15    1501424.1 
       0.219     1161    460.39712   0.16790774 2.3310209e-06 -1.8272481e-06     57.10648     57.10648   -884.12576   -884.12576 -9.7206982e-13    -497263.4 9.0462133e-15    1501424.1 
        0.22     1162    460.39712    0.1583133 2.3586597e-06 -1.7892383e-06     57.10648     57.10648   -884.13149   -884.13149 -8.0134518e-13    -497263.4 9.0462133e-15    1501424.1 
       0.221     1163    460.39712   0.14917715 2.4118531e-06 -1.7369288e-06     57.10648     57.10648   -884.13694   -884.13694 -7.6298674e-13    -497263.4 9.0462133e-15    1501424.1 
       0.222     1164    460.39712   0.14058551 2.4470669e-06 -1.6798834e-06     57.10648     57.10648   -884.14205   -884.14205 -4.9839208e-13    -497263.4 9.0462133e-15    1501424.1 
       0.223     1165    460.39712    0.1310192 2.451207e-06 -1.62888e-06     57.10648     57.10648   -884.14775   -884.14775 -8.8804861e-13    -497263.4 9.0462133e-15    1501424.1 
       0.224     1166    460.39712   0.12333356 2.4509485e-06 -1.6131157e-06     57.10648     57.10648   -884.15232   -884.15232 4.0220322e-13    -497263.4 9.0462133e-15    1501424.1 
       0.225     1167    460.39712   0.11436888 2.4378071e-06 -1.627337e-06     57.10648     57.10648   -884.15766   -884.15766 1.5890785e-12    -497263.4 9.0462133e-15    1501424.1 
       0.226     1168    460.39712    0.1069877 2.3986267e-06 -1.6529097e-06     57.10648     57.10648   -884.16207   -884.16207 -6.7402095e-13    -497263.4 9.0462133e-15    1501424.1 
       0.227     1169    460.39712  0.098721604 2.3644862e-06 -1.6786874e-06     57.10648     57.10648   -884.16701   -884.16701 8.1519159e-13    -497263.4 9.0462133e-15    1501424.1 
       0.228     1170    460.39712  0.091576822 2.3854726e-06 -1.6752002e-06     57.10648     57.10648   -884.17127   -884.17127 -1.151177e-12    -497263.4 9.0462133e-15    1501424.1 
       0.229     1171    460.39712  0.085018547 2.4090712e-06 -1.6464385e-06     57.10648     57.10648   -884.17518   -884.17518 -1.0542417e-12    -497263.4 9.0462133e-15    1501424.1 
        0.23     1172    460.39712  0.078388323 2.398259e-06 -1.6083988e-06     57.10648     57.10648   -884.17912   -884.17912 -6.2041459e-13    -497263.4 9.0462133e-15    1501424.1 
       0.231     1173    460.39712  0.072552314 2.3907909e-06 -1.5857665e-06     57.10648     57.10648   -884.18258   -884.18258 -1.1675872e-12    -497263.4 9.0462133e-15    1501424.1 
       0.232     1174    460.39712  0.066563376 2.3916372e-06 -1.5680683e-06     57.10648     57.10648   -884.18615   -884.18615 -8.9133816e-13    -497263.4 9.0462133e-15    1501424.1 
       0.233     1175    460.39712  0.061270633 2.3626894e-06 -1.5491524e-06     57.10648     57.10648   -884.18932   -884.18932 -2.2467875e-12    -497263.4 9.0462133e-15    1501424.1 
       0.234     1176    460.39712   0.05591555 2.3047248e-06 -1.5382254e-06     57.10648     57.10648   -884.19252   -884.19252 -1.7528278e-12    -497263.4 9.0462133e-15    1501424.1 
       0.235     1177    460.39712  0.050730632 2.2618161e-06 -1.537852e-06     57.10648     57.10648   -884.19562   -884.19562 -2.1048892e-12    -497263.4 9.0462133e-15    1501424.1 
       0.236     1178    460.39712    0.0463363 2.2442735e-06 -1.5237938e-06     57.10648     57.10648   -884.19826   -884.19826 -1.7428023e-12    -497263.4 9.0462133e-15    1501424.1 
       0.237     1179    460.39712  0.041933218 2.2280945e-06 -1.4845888e-06     57.10648     57.10648    -884.2009    -884.2009 -1.6163345e-12    -497263.4 9.0462133e-15    1501424.1 
       0.238     1180    460.39712    0.0383491 2.2085156e-06 -1.4549803e-06     57.10648     57.10648   -884.20305   -884.20305 -4.1722443e-13    -497263.4 9.0462133e-15    1501424.1 
       0.239     1181    460.39712  0.034670982 2.1860141e-06 -1.4405786e-06     57.10648     57.10648   -884.20526   -884.20526 -1.0819308e-12    -497263.4 9.0462133e-15    1501424.1 
        0.24     1182    460.39712  0.031311007  2.15759e-06 -1.4317884e-06     57.10648     57.10648   -884.20729   -884.20729 -2.4995491e-12    -497263.4 9.0462133e-15    1501424.1 
       0.241     1183    460.39712  0.027178848 2.1038182e-06 -1.4219073e-06     57.10648     57.10648    -884.2098    -884.2098 -1.1654509e-12    -497263.4 9.0462133e-15    1501424.1 
       0.242     1184    460.39712   0.02126663 2.0029299e-06 -1.426858e-06     57.10648     57.10648   -884.21342   -884.21342 -3.6930097e-12    -497263.4 9.0462133e-15    1501424.1 
       0.243     1185    460.39712  0.014284021 1.8652651e-06 -1.4415691e-06     57.10648     57.10648   -884.21769   -884.21769 -6.0413105e-12    -497263.4 9.0462133e-15    1501424.1 
       0.244     1186    460.39712 0.0046405862 1.6102319e-06 -1.4261034e-06     57.10648     57.10648   -884.22349   -884.22349 -8.8728166e-12    -497263.4 9.0462133e-15    1501424.1 
       0.245     1187    460.39712 -0.0028223651 1.3298757e-06 -1.362188e-06     57.10648     57.10648   -884.22788   -884.22788 -8.1667126e-12    -497263.4 9.0462133e-15    1501424.1 
       0.246     1188    460.39712   -0.0061474 1.155006e-06 -1.3089867e-06     57.10648     57.10648   -884.22971   -884.22971 -2.7894512e-12    -497263.4 9.0462133e-15    1501424.1 
       0.247     1189    460.39712 -0.006412175 1.1170956e-06 -1.2987559e-06     57.10648     57.10648   -884.22977   -884.22977 -4.0343839e-13    -497263.4 9.0462133e-15    1501424.1 
       0.248     1190    460.39712 -0.0061880989 1.1071972e-06 -1.296842e-06     57.10648     57.10648   -884.22959   -884.22959 -6.6776449e-13    -497263.4 9.0462133e-15    1501424.1 
       0.249     1191    460.39712 -0.0060293068 1.1057061e-06 -1.2957918e-06     57.10648     57.10648   -884.22947   -884.22947 -8.1004497e-13    -497263.4 9.0462133e-15    1501424.1 
Loop time of 29.3028 on 64 procs for 244 steps with 120800 atoms

86.4% CPU use with 64 MPI tasks x 1 OpenMP threads

Minimization stats:
  Stopping criterion = energy tolerance
  Energy initial, next-to-last, final = 
     -497263.135476118  -497263.401315488  -497263.401315488
  Force two-norm initial, final = 0.14495140 1.1082346e-05
  Force max component initial, final = 0.0050011072 1.0729446e-07
  Final line search alpha, max atom move = 1.0000000 1.0729446e-07
  Iterations, force evaluations = 244 488

MPI task timing breakdown:
Section |  min time  |  avg time  |  max time  |%varavg| %total
---------------------------------------------------------------
Pair    | 11.864     | 15.62      | 17.998     |  32.5 | 53.31
Neigh   | 0          | 0          | 0          |   0.0 |  0.00
Comm    | 5.8233     | 7.0321     | 10.398     |  39.2 | 24.00
Output  | 0.89243    | 0.89561    | 0.90317    |   0.2 |  3.06
Modify  | 0          | 0          | 0          |   0.0 |  0.00
Other   |            | 5.755      |            |       | 19.64

Nlocal:        1887.50 ave        2116 max         777 min
Histogram: 4 0 4 0 0 0 0 0 7 49
Nghost:        5072.94 ave        5499 max        2548 min
Histogram: 4 4 0 0 0 0 0 0 2 54
Neighs:         0.00000 ave           0 max           0 min
Histogram: 64 0 0 0 0 0 0 0 0 0
FullNghs:      314975.0 ave      355488 max      113659 min
Histogram: 4 0 4 0 0 0 0 0 1 55

Total # of neighbors = 20158400
Ave neighs/atom = 166.87417
Neighbor list builds = 0
Dangerous builds = 0
print 		"${boxlen} ${boxwidth} ${pressure} ${sigma} ${epsilon} ${current_time} $t" append ssminimize.txt
460.397115600536 57.10648 -0.00602930683100029 0.00614993716308612 0.00149972507497568 0.249 9.04621329744899e-15
print 		"minimize end"
minimize end
unfix strain
#if "$i == 25" then quit
next j
jump SELF deformationLoop

Total wall time: 0:02:34
