LAMMPS (29 Sep 2021 - Update 1)
KOKKOS mode is enabled (../kokkos.cpp:97)
  will use up to 1 GPU(s) per node
  using 1 OpenMP thread(s) per MPI task
Reading data file ...
  orthogonal box = (0.0000000 0.0000000 0.0000000) to (436.86457 57.106480 57.106480)
  16 by 2 by 2 MPI processor grid
  reading atoms ...
  120800 atoms
  read_data CPU = 0.314 seconds
800 atoms in group source
800 atoms in group detector
0 atoms in group edge
0 atoms in group edge_buf
0 atoms in group buffer
Neighbor list info ...
  update every 1 steps, delay 10 steps, check yes
  max neighbors/atom: 2000, page size: 100000
  master list distance cutoff = 7.6
  ghost atom cutoff = 7.6
  binsize = 7.6, bins = 58 8 8
  1 neighbor lists, perpetual/occasional/extra = 1 0 0
  (1) pair eam/alloy/kk, perpetual
      attributes: full, newton off, kokkos_device
      pair build: full/bin/kk/device
      stencil: full/bin/3d
      bin: kk/device
Setting up Verlet run ...
  Unit style    : metal
  Current step  : 0
  Time step     : 0.001
terminate called after throwing an instance of 'std::runtime_error'
  what():  Kokkos failed to allocate memory for label "atom:f".  Allocation using MemorySpace named "Cuda" failed with the following error:  Allocation of size 78.03 K failed, likely due to insufficient memory.  (The allocation mechanism was cudaMalloc().  The Cuda allocation returned the error code ""cudaErrorMemoryAllocation".)

Traceback functionality not available

[r233n16:30197] *** Process received signal ***
[r233n16:30197] Signal: Aborted (6)
[r233n16:30197] Signal code:  (-6)
[r233n16:30197] [ 0] linux-vdso64.so.1(__kernel_sigtramp_rt64+0x0)[0x2000000504d8]
[r233n16:30197] [ 1] /lib64/power9/libc.so.6(gsignal+0xd8)[0x20000bb63798]
[r233n16:30197] [ 2] /lib64/power9/libc.so.6(abort+0x164)[0x20000bb43bac]
[r233n16:30197] [ 3] /cineca/prod/opt/compilers/gnu/8.4.0/none/lib64/libstdc++.so.6(_ZN9__gnu_cxx27__verbose_terminate_handlerEv+0x158)[0x20000b32bd38]
[r233n16:30197] [ 4] /cineca/prod/opt/compilers/gnu/8.4.0/none/lib64/libstdc++.so.6(+0xb6c44)[0x20000b326c44]
[r233n16:30197] [ 5] /cineca/prod/opt/compilers/gnu/8.4.0/none/lib64/libstdc++.so.6(_ZSt9terminatev+0x20)[0x20000b326d00]
[r233n16:30197] [ 6] /cineca/prod/opt/compilers/gnu/8.4.0/none/lib64/libstdc++.so.6(__cxa_throw+0x7c)[0x20000b3271dc]
[r233n16:30197] [ 7] lmp_kokkos_cuda_mpi(_ZN6Kokkos4Impl23throw_runtime_exceptionERKNSt7__cxx1112basic_stringIcSt11char_traitsIcESaIcEEE+0xac)[0x12bd189c]
[r233n16:30197] [ 8] lmp_kokkos_cuda_mpi(_ZN6Kokkos4Impl41safe_throw_allocation_with_header_failureERKNSt7__cxx1112basic_stringIcSt11char_traitsIcESaIcEEES8_RKNS_12Experimental26RawMemoryAllocationFailureE+0x224)[0x12be1654]
[r233n16:30197] [ 9] lmp_kokkos_cuda_mpi(_ZN6Kokkos4Impl30checked_allocation_with_headerINS_9CudaSpaceEEEPNS0_22SharedAllocationHeaderERKT_RKNSt7__cxx1112basic_stringIcSt11char_traitsIcESaIcEEEm+0x80)[0x12be1010]
[r233n16:30197] [10] lmp_kokkos_cuda_mpi(_ZN6Kokkos4Impl22SharedAllocationRecordINS_9CudaSpaceEvEC1ERKS2_RKNSt7__cxx1112basic_stringIcSt11char_traitsIcESaIcEEEmPFvPNS1_IvvEEE+0x4c)[0x12bdd35c]
[r233n16:30197] [11] lmp_kokkos_cuda_mpi(_ZN6Kokkos4ViewIA3_PdJNS_11LayoutRightENS_4CudaEvEEC2INSt7__cxx1112basic_stringIcSt11char_traitsIcESaIcEEEEERKT_NSt9enable_ifIXsrNS_4Impl13is_view_labelISD_EE5valueEKmE4typeEmmmmmmm+0x1c0)[0x10a166b0]
[r233n16:30197] [12] lmp_kokkos_cuda_mpi(_ZN6Kokkos8DualViewIA3_PdNS_11LayoutRightENS_4CudaEvE6resizeEmmmmmmmm+0xf8)[0x10a2b868]
[r233n16:30197] [13] lmp_kokkos_cuda_mpi(_ZN9LAMMPS_NS12MemoryKokkos11grow_kokkosIN6Kokkos8DualViewIA3_PdNS2_11LayoutRightENS2_4CudaEvEEEET_RS9_RPPNS9_10value_typeEiPKc+0x78)[0x10a2c7b8]
[r233n16:30197] [14] lmp_kokkos_cuda_mpi(_ZN9LAMMPS_NS19AtomVecAtomicKokkos4growEi+0x27c)[0x1262e9dc]
[r233n16:30197] [15] lmp_kokkos_cuda_mpi(_ZN9LAMMPS_NS19AtomVecAtomicKokkos20unpack_border_kokkosERKiS2_RKN6Kokkos8DualViewIPPdNS3_11LayoutRightENS3_4CudaEvEENS_14ExecutionSpaceE+0x8c)[0x12629a4c]
[r233n16:30197] [16] lmp_kokkos_cuda_mpi(_ZN9LAMMPS_NS10CommKokkos14borders_deviceIN6Kokkos4CudaEEEvv+0x5b0)[0x11258710]
[r233n16:30197] [17] lmp_kokkos_cuda_mpi(_ZN9LAMMPS_NS10CommKokkos7bordersEv+0x248)[0x1124a798]
[r233n16:30197] [18] lmp_kokkos_cuda_mpi(_ZN9LAMMPS_NS12VerletKokkos5setupEi+0x1d0)[0x12b3e0c0]
[r233n16:30197] [19] lmp_kokkos_cuda_mpi(_ZN9LAMMPS_NS3Run7commandEiPPc+0x14fc)[0x1098148c]
[r233n16:30197] [20] lmp_kokkos_cuda_mpi(_ZN9LAMMPS_NS5Input15execute_commandEv+0x2bf0)[0x1091c6f0]
[r233n16:30197] [21] lmp_kokkos_cuda_mpi(_ZN9LAMMPS_NS5Input4fileEv+0x2b0)[0x1091d3b0]
[r233n16:30197] [22] lmp_kokkos_cuda_mpi(main+0x6c)[0x1086af4c]
[r233n16:30197] [23] /lib64/power9/libc.so.6(+0x241f8)[0x20000bb441f8]
[r233n16:30197] [24] /lib64/power9/libc.so.6(__libc_start_main+0xb4)[0x20000bb443e4]
[r233n16:30197] *** End of error message ***
terminate called after throwing an instance of 'std::runtime_error'
  what():  Kokkos failed to allocate memory for label "atom:f".  Allocation using MemorySpace named "Cuda" failed with the following error:  Allocation of size 78.03 K failed, likely due to insufficient memory.  (The allocation mechanism was cudaMalloc().  The Cuda allocation returned the error code ""cudaErrorMemoryAllocation".)

Traceback functionality not available

[r233n16:30198] *** Process received signal ***
[r233n16:30198] Signal: Aborted (6)
[r233n16:30198] Signal code:  (-6)
[r233n16:30198] [ 0] linux-vdso64.so.1(__kernel_sigtramp_rt64+0x0)[0x2000000504d8]
[r233n16:30198] [ 1] /lib64/power9/libc.so.6(gsignal+0xd8)[0x20000bb63798]
[r233n16:30198] [ 2] /lib64/power9/libc.so.6(abort+0x164)[0x20000bb43bac]
[r233n16:30198] [ 3] /cineca/prod/opt/compilers/gnu/8.4.0/none/lib64/libstdc++.so.6(_ZN9__gnu_cxx27__verbose_terminate_handlerEv+0x158)[0x20000b32bd38]
[r233n16:30198] [ 4] /cineca/prod/opt/compilers/gnu/8.4.0/none/lib64/libstdc++.so.6(+0xb6c44)[0x20000b326c44]
[r233n16:30198] [ 5] /cineca/prod/opt/compilers/gnu/8.4.0/none/lib64/libstdc++.so.6(_ZSt9terminatev+0x20)[0x20000b326d00]
[r233n16:30198] [ 6] /cineca/prod/opt/compilers/gnu/8.4.0/none/lib64/libstdc++.so.6(__cxa_throw+0x7c)[0x20000b3271dc]
[r233n16:30198] [ 7] lmp_kokkos_cuda_mpi(_ZN6Kokkos4Impl23throw_runtime_exceptionERKNSt7__cxx1112basic_stringIcSt11char_traitsIcESaIcEEE+0xac)[0x12bd189c]
[r233n16:30198] [ 8] lmp_kokkos_cuda_mpi(_ZN6Kokkos4Impl41safe_throw_allocation_with_header_failureERKNSt7__cxx1112basic_stringIcSt11char_traitsIcESaIcEEES8_RKNS_12Experimental26RawMemoryAllocationFailureE+0x224)[0x12be1654]
[r233n16:30198] [ 9] lmp_kokkos_cuda_mpi(_ZN6Kokkos4Impl30checked_allocation_with_headerINS_9CudaSpaceEEEPNS0_22SharedAllocationHeaderERKT_RKNSt7__cxx1112basic_stringIcSt11char_traitsIcESaIcEEEm+0x80)[0x12be1010]
[r233n16:30198] [10] lmp_kokkos_cuda_mpi(_ZN6Kokkos4Impl22SharedAllocationRecordINS_9CudaSpaceEvEC1ERKS2_RKNSt7__cxx1112basic_stringIcSt11char_traitsIcESaIcEEEmPFvPNS1_IvvEEE+0x4c)[0x12bdd35c]
[r233n16:30198] [11] lmp_kokkos_cuda_mpi(_ZN6Kokkos4ViewIA3_PdJNS_11LayoutRightENS_4CudaEvEEC2INSt7__cxx1112basic_stringIcSt11char_traitsIcESaIcEEEEERKT_NSt9enable_ifIXsrNS_4Impl13is_view_labelISD_EE5valueEKmE4typeEmmmmmmm+0x1c0)[0x10a166b0]
[r233n16:30198] [12] lmp_kokkos_cuda_mpi(_ZN6Kokkos8DualViewIA3_PdNS_11LayoutRightENS_4CudaEvE6resizeEmmmmmmmm+0xf8)[0x10a2b868]
[r233n16:30198] [13] lmp_kokkos_cuda_mpi(_ZN9LAMMPS_NS12MemoryKokkos11grow_kokkosIN6Kokkos8DualViewIA3_PdNS2_11LayoutRightENS2_4CudaEvEEEET_RS9_RPPNS9_10value_typeEiPKc+0x78)[0x10a2c7b8]
[r233n16:30198] [14] lmp_kokkos_cuda_mpi(_ZN9LAMMPS_NS19AtomVecAtomicKokkos4growEi+0x27c)[0x1262e9dc]
[r233n16:30198] [15] lmp_kokkos_cuda_mpi(_ZN9LAMMPS_NS19AtomVecAtomicKokkos20unpack_border_kokkosERKiS2_RKN6Kokkos8DualViewIPPdNS3_11LayoutRightENS3_4CudaEvEENS_14ExecutionSpaceE+0x8c)[0x12629a4c]
[r233n16:30198] [16] lmp_kokkos_cuda_mpi(_ZN9LAMMPS_NS10CommKokkos14borders_deviceIN6Kokkos4CudaEEEvv+0x5b0)[0x11258710]
[r233n16:30198] [17] lmp_kokkos_cuda_mpi(_ZN9LAMMPS_NS10CommKokkos7bordersEv+0x248)[0x1124a798]
[r233n16:30198] [18] lmp_kokkos_cuda_mpi(_ZN9LAMMPS_NS12VerletKokkos5setupEi+0x1d0)[0x12b3e0c0]
[r233n16:30198] [19] lmp_kokkos_cuda_mpi(_ZN9LAMMPS_NS3Run7commandEiPPc+0x14fc)[0x1098148c]
[r233n16:30198] [20] lmp_kokkos_cuda_mpi(_ZN9LAMMPS_NS5Input15execute_commandEv+0x2bf0)[0x1091c6f0]
[r233n16:30198] [21] lmp_kokkos_cuda_mpi(_ZN9LAMMPS_NS5Input4fileEv+0x2b0)[0x1091d3b0]
[r233n16:30198] [22] lmp_kokkos_cuda_mpi(main+0x6c)[0x1086af4c]
[r233n16:30198] [23] /lib64/power9/libc.so.6(+0x241f8)[0x20000bb441f8]
[r233n16:30198] [24] /lib64/power9/libc.so.6(__libc_start_main+0xb4)[0x20000bb443e4]
[r233n16:30198] *** End of error message ***
terminate called after throwing an instance of 'std::runtime_error'
  what():  Kokkos failed to allocate memory for label "atom:f".  Allocation using MemorySpace named "Cuda" failed with the following error:  Allocation of size 78.03 K failed, likely due to insufficient memory.  (The allocation mechanism was cudaMalloc().  The Cuda allocation returned the error code ""cudaErrorMemoryAllocation".)

Traceback functionality not available

[r233n16:30206] *** Process received signal ***
[r233n16:30206] Signal: Aborted (6)
[r233n16:30206] Signal code:  (-6)
[r233n16:30206] [ 0] linux-vdso64.so.1(__kernel_sigtramp_rt64+0x0)[0x2000000504d8]
[r233n16:30206] [ 1] /lib64/power9/libc.so.6(gsignal+0xd8)[0x20000bb63798]
[r233n16:30206] [ 2] /lib64/power9/libc.so.6(abort+0x164)[0x20000bb43bac]
[r233n16:30206] [ 3] /cineca/prod/opt/compilers/gnu/8.4.0/none/lib64/libstdc++.so.6(_ZN9__gnu_cxx27__verbose_terminate_handlerEv+0x158)[0x20000b32bd38]
[r233n16:30206] [ 4] /cineca/prod/opt/compilers/gnu/8.4.0/none/lib64/libstdc++.so.6(+0xb6c44)[0x20000b326c44]
[r233n16:30206] [ 5] /cineca/prod/opt/compilers/gnu/8.4.0/none/lib64/libstdc++.so.6(_ZSt9terminatev+0x20)[0x20000b326d00]
[r233n16:30206] [ 6] /cineca/prod/opt/compilers/gnu/8.4.0/none/lib64/libstdc++.so.6(__cxa_throw+0x7c)[0x20000b3271dc]
[r233n16:30206] [ 7] lmp_kokkos_cuda_mpi(_ZN6Kokkos4Impl23throw_runtime_exceptionERKNSt7__cxx1112basic_stringIcSt11char_traitsIcESaIcEEE+0xac)[0x12bd189c]
[r233n16:30206] [ 8] lmp_kokkos_cuda_mpi(_ZN6Kokkos4Impl41safe_throw_allocation_with_header_failureERKNSt7__cxx1112basic_stringIcSt11char_traitsIcESaIcEEES8_RKNS_12Experimental26RawMemoryAllocationFailureE+0x224)[0x12be1654]
[r233n16:30206] [ 9] lmp_kokkos_cuda_mpi(_ZN6Kokkos4Impl30checked_allocation_with_headerINS_9CudaSpaceEEEPNS0_22SharedAllocationHeaderERKT_RKNSt7__cxx1112basic_stringIcSt11char_traitsIcESaIcEEEm+0x80)[0x12be1010]
[r233n16:30206] [10] lmp_kokkos_cuda_mpi(_ZN6Kokkos4Impl22SharedAllocationRecordINS_9CudaSpaceEvEC1ERKS2_RKNSt7__cxx1112basic_stringIcSt11char_traitsIcESaIcEEEmPFvPNS1_IvvEEE+0x4c)[0x12bdd35c]
[r233n16:30206] [11] lmp_kokkos_cuda_mpi(_ZN6Kokkos4ViewIA3_PdJNS_11LayoutRightENS_4CudaEvEEC2INSt7__cxx1112basic_stringIcSt11char_traitsIcESaIcEEEEERKT_NSt9enable_ifIXsrNS_4Impl13is_view_labelISD_EE5valueEKmE4typeEmmmmmmm+0x1c0)[0x10a166b0]
[r233n16:30206] [12] lmp_kokkos_cuda_mpi(_ZN6Kokkos8DualViewIA3_PdNS_11LayoutRightENS_4CudaEvE6resizeEmmmmmmmm+0xf8)[0x10a2b868]
[r233n16:30206] [13] lmp_kokkos_cuda_mpi(_ZN9LAMMPS_NS12MemoryKokkos11grow_kokkosIN6Kokkos8DualViewIA3_PdNS2_11LayoutRightENS2_4CudaEvEEEET_RS9_RPPNS9_10value_typeEiPKc+0x78)[0x10a2c7b8]
[r233n16:30206] [14] lmp_kokkos_cuda_mpi(_ZN9LAMMPS_NS19AtomVecAtomicKokkos4growEi+0x27c)[0x1262e9dc]
[r233n16:30206] [15] lmp_kokkos_cuda_mpi(_ZN9LAMMPS_NS19AtomVecAtomicKokkos20unpack_border_kokkosERKiS2_RKN6Kokkos8DualViewIPPdNS3_11LayoutRightENS3_4CudaEvEENS_14ExecutionSpaceE+0x8c)[0x12629a4c]
[r233n16:30206] [16] lmp_kokkos_cuda_mpi(_ZN9LAMMPS_NS10CommKokkos14borders_deviceIN6Kokkos4CudaEEEvv+0x5b0)[0x11258710]
[r233n16:30206] [17] lmp_kokkos_cuda_mpi(_ZN9LAMMPS_NS10CommKokkos7bordersEv+0x248)[0x1124a798]
[r233n16:30206] [18] lmp_kokkos_cuda_mpi(_ZN9LAMMPS_NS12VerletKokkos5setupEi+0x1d0)[0x12b3e0c0]
[r233n16:30206] [19] lmp_kokkos_cuda_mpi(_ZN9LAMMPS_NS3Run7commandEiPPc+0x14fc)[0x1098148c]
[r233n16:30206] [20] lmp_kokkos_cuda_mpi(_ZN9LAMMPS_NS5Input15execute_commandEv+0x2bf0)[0x1091c6f0]
[r233n16:30206] [21] lmp_kokkos_cuda_mpi(_ZN9LAMMPS_NS5Input4fileEv+0x2b0)[0x1091d3b0]
[r233n16:30206] [22] lmp_kokkos_cuda_mpi(main+0x6c)[0x1086af4c]
[r233n16:30206] [23] /lib64/power9/libc.so.6(+0x241f8)[0x20000bb441f8]
[r233n16:30206] [24] /lib64/power9/libc.so.6(__libc_start_main+0xb4)[0x20000bb443e4]
[r233n16:30206] *** End of error message ***
terminate called after throwing an instance of 'std::runtime_error'
  what():  Kokkos failed to allocate memory for label "atom:f".  Allocation using MemorySpace named "Cuda" failed with the following error:  Allocation of size 78.03 K failed, likely due to insufficient memory.  (The allocation mechanism was cudaMalloc().  The Cuda allocation returned the error code ""cudaErrorMemoryAllocation".)

Traceback functionality not available

[r233n16:30205] *** Process received signal ***
[r233n16:30205] Signal: Aborted (6)
[r233n16:30205] Signal code:  (-6)
[r233n16:30205] [ 0] linux-vdso64.so.1(__kernel_sigtramp_rt64+0x0)[0x2000000504d8]
[r233n16:30205] [ 1] /lib64/power9/libc.so.6(gsignal+0xd8)[0x20000bb63798]
[r233n16:30205] [ 2] /lib64/power9/libc.so.6(abort+0x164)[0x20000bb43bac]
[r233n16:30205] [ 3] /cineca/prod/opt/compilers/gnu/8.4.0/none/lib64/libstdc++.so.6(_ZN9__gnu_cxx27__verbose_terminate_handlerEv+0x158)[0x20000b32bd38]
[r233n16:30205] [ 4] /cineca/prod/opt/compilers/gnu/8.4.0/none/lib64/libstdc++.so.6(+0xb6c44)[0x20000b326c44]
[r233n16:30205] [ 5] /cineca/prod/opt/compilers/gnu/8.4.0/none/lib64/libstdc++.so.6(_ZSt9terminatev+0x20)[0x20000b326d00]
[r233n16:30205] [ 6] /cineca/prod/opt/compilers/gnu/8.4.0/none/lib64/libstdc++.so.6(__cxa_throw+0x7c)[0x20000b3271dc]
[r233n16:30205] [ 7] lmp_kokkos_cuda_mpi(_ZN6Kokkos4Impl23throw_runtime_exceptionERKNSt7__cxx1112basic_stringIcSt11char_traitsIcESaIcEEE+0xac)[0x12bd189c]
[r233n16:30205] [ 8] lmp_kokkos_cuda_mpi(_ZN6Kokkos4Impl41safe_throw_allocation_with_header_failureERKNSt7__cxx1112basic_stringIcSt11char_traitsIcESaIcEEES8_RKNS_12Experimental26RawMemoryAllocationFailureE+0x224)[0x12be1654]
[r233n16:30205] [ 9] lmp_kokkos_cuda_mpi(_ZN6Kokkos4Impl30checked_allocation_with_headerINS_9CudaSpaceEEEPNS0_22SharedAllocationHeaderERKT_RKNSt7__cxx1112basic_stringIcSt11char_traitsIcESaIcEEEm+0x80)[0x12be1010]
[r233n16:30205] [10] lmp_kokkos_cuda_mpi(_ZN6Kokkos4Impl22SharedAllocationRecordINS_9CudaSpaceEvEC1ERKS2_RKNSt7__cxx1112basic_stringIcSt11char_traitsIcESaIcEEEmPFvPNS1_IvvEEE+0x4c)[0x12bdd35c]
[r233n16:30205] [11] lmp_kokkos_cuda_mpi(_ZN6Kokkos4ViewIA3_PdJNS_11LayoutRightENS_4CudaEvEEC2INSt7__cxx1112basic_stringIcSt11char_traitsIcESaIcEEEEERKT_NSt9enable_ifIXsrNS_4Impl13is_view_labelISD_EE5valueEKmE4typeEmmmmmmm+0x1c0)[0x10a166b0]
[r233n16:30205] [12] lmp_kokkos_cuda_mpi(_ZN6Kokkos8DualViewIA3_PdNS_11LayoutRightENS_4CudaEvE6resizeEmmmmmmmm+0xf8)[0x10a2b868]
[r233n16:30205] [13] lmp_kokkos_cuda_mpi(_ZN9LAMMPS_NS12MemoryKokkos11grow_kokkosIN6Kokkos8DualViewIA3_PdNS2_11LayoutRightENS2_4CudaEvEEEET_RS9_RPPNS9_10value_typeEiPKc+0x78)[0x10a2c7b8]
[r233n16:30205] [14] lmp_kokkos_cuda_mpi(_ZN9LAMMPS_NS19AtomVecAtomicKokkos4growEi+0x27c)[0x1262e9dc]
[r233n16:30205] [15] lmp_kokkos_cuda_mpi(_ZN9LAMMPS_NS19AtomVecAtomicKokkos20unpack_border_kokkosERKiS2_RKN6Kokkos8DualViewIPPdNS3_11LayoutRightENS3_4CudaEvEENS_14ExecutionSpaceE+0x8c)[0x12629a4c]
[r233n16:30205] [16] lmp_kokkos_cuda_mpi(_ZN9LAMMPS_NS10CommKokkos14borders_deviceIN6Kokkos4CudaEEEvv+0x5b0)[0x11258710]
[r233n16:30205] [17] lmp_kokkos_cuda_mpi(_ZN9LAMMPS_NS10CommKokkos7bordersEv+0x248)[0x1124a798]
[r233n16:30205] [18] lmp_kokkos_cuda_mpi(_ZN9LAMMPS_NS12VerletKokkos5setupEi+0x1d0)[0x12b3e0c0]
[r233n16:30205] [19] lmp_kokkos_cuda_mpi(_ZN9LAMMPS_NS3Run7commandEiPPc+0x14fc)[0x1098148c]
[r233n16:30205] [20] lmp_kokkos_cuda_mpi(_ZN9LAMMPS_NS5Input15execute_commandEv+0x2bf0)[0x1091c6f0]
[r233n16:30205] [21] lmp_kokkos_cuda_mpi(_ZN9LAMMPS_NS5Input4fileEv+0x2b0)[0x1091d3b0]
[r233n16:30205] [22] lmp_kokkos_cuda_mpi(main+0x6c)[0x1086af4c]
[r233n16:30205] [23] /lib64/power9/libc.so.6(+0x241f8)[0x20000bb441f8]
[r233n16:30205] [24] /lib64/power9/libc.so.6(__libc_start_main+0xb4)[0x20000bb443e4]
[r233n16:30205] *** End of error message ***
terminate called after throwing an instance of 'std::runtime_error'
  what():  Kokkos failed to allocate memory for label "atom:f".  Allocation using MemorySpace named "Cuda" failed with the following error:  Allocation of size 78.03 K failed, likely due to insufficient memory.  (The allocation mechanism was cudaMalloc().  The Cuda allocation returned the error code ""cudaErrorMemoryAllocation".)

Traceback functionality not available

[r233n16:30209] *** Process received signal ***
[r233n16:30209] Signal: Aborted (6)
[r233n16:30209] Signal code:  (-6)
[r233n16:30209] [ 0] linux-vdso64.so.1(__kernel_sigtramp_rt64+0x0)[0x2000000504d8]
[r233n16:30209] [ 1] /lib64/power9/libc.so.6(gsignal+0xd8)[0x20000bb63798]
[r233n16:30209] [ 2] /lib64/power9/libc.so.6(abort+0x164)[0x20000bb43bac]
[r233n16:30209] [ 3] /cineca/prod/opt/compilers/gnu/8.4.0/none/lib64/libstdc++.so.6(_ZN9__gnu_cxx27__verbose_terminate_handlerEv+0x158)[0x20000b32bd38]
[r233n16:30209] [ 4] /cineca/prod/opt/compilers/gnu/8.4.0/none/lib64/libstdc++.so.6(+0xb6c44)[0x20000b326c44]
[r233n16:30209] [ 5] /cineca/prod/opt/compilers/gnu/8.4.0/none/lib64/libstdc++.so.6(_ZSt9terminatev+0x20)[0x20000b326d00]
[r233n16:30209] [ 6] /cineca/prod/opt/compilers/gnu/8.4.0/none/lib64/libstdc++.so.6(__cxa_throw+0x7c)[0x20000b3271dc]
[r233n16:30209] [ 7] lmp_kokkos_cuda_mpi(_ZN6Kokkos4Impl23throw_runtime_exceptionERKNSt7__cxx1112basic_stringIcSt11char_traitsIcESaIcEEE+0xac)[0x12bd189c]
[r233n16:30209] [ 8] lmp_kokkos_cuda_mpi(_ZN6Kokkos4Impl41safe_throw_allocation_with_header_failureERKNSt7__cxx1112basic_stringIcSt11char_traitsIcESaIcEEES8_RKNS_12Experimental26RawMemoryAllocationFailureE+0x224)[0x12be1654]
[r233n16:30209] [ 9] lmp_kokkos_cuda_mpi(_ZN6Kokkos4Impl30checked_allocation_with_headerINS_9CudaSpaceEEEPNS0_22SharedAllocationHeaderERKT_RKNSt7__cxx1112basic_stringIcSt11char_traitsIcESaIcEEEm+0x80)[0x12be1010]
[r233n16:30209] [10] lmp_kokkos_cuda_mpi(_ZN6Kokkos4Impl22SharedAllocationRecordINS_9CudaSpaceEvEC1ERKS2_RKNSt7__cxx1112basic_stringIcSt11char_traitsIcESaIcEEEmPFvPNS1_IvvEEE+0x4c)[0x12bdd35c]
[r233n16:30209] [11] lmp_kokkos_cuda_mpi(_ZN6Kokkos4ViewIA3_PdJNS_11LayoutRightENS_4CudaEvEEC2INSt7__cxx1112basic_stringIcSt11char_traitsIcESaIcEEEEERKT_NSt9enable_ifIXsrNS_4Impl13is_view_labelISD_EE5valueEKmE4typeEmmmmmmm+0x1c0)[0x10a166b0]
[r233n16:30209] [12] lmp_kokkos_cuda_mpi(_ZN6Kokkos8DualViewIA3_PdNS_11LayoutRightENS_4CudaEvE6resizeEmmmmmmmm+0xf8)[0x10a2b868]
[r233n16:30209] [13] lmp_kokkos_cuda_mpi(_ZN9LAMMPS_NS12MemoryKokkos11grow_kokkosIN6Kokkos8DualViewIA3_PdNS2_11LayoutRightENS2_4CudaEvEEEET_RS9_RPPNS9_10value_typeEiPKc+0x78)[0x10a2c7b8]
[r233n16:30209] [14] lmp_kokkos_cuda_mpi(_ZN9LAMMPS_NS19AtomVecAtomicKokkos4growEi+0x27c)[0x1262e9dc]
[r233n16:30209] [15] lmp_kokkos_cuda_mpi(_ZN9LAMMPS_NS19AtomVecAtomicKokkos20unpack_border_kokkosERKiS2_RKN6Kokkos8DualViewIPPdNS3_11LayoutRightENS3_4CudaEvEENS_14ExecutionSpaceE+0x8c)[0x12629a4c]
[r233n16:30209] [16] lmp_kokkos_cuda_mpi(_ZN9LAMMPS_NS10CommKokkos14borders_deviceIN6Kokkos4CudaEEEvv+0x5b0)[0x11258710]
[r233n16:30209] [17] lmp_kokkos_cuda_mpi(_ZN9LAMMPS_NS10CommKokkos7bordersEv+0x248)[0x1124a798]
[r233n16:30209] [18] lmp_kokkos_cuda_mpi(_ZN9LAMMPS_NS12VerletKokkos5setupEi+0x1d0)[0x12b3e0c0]
[r233n16:30209] [19] lmp_kokkos_cuda_mpi(_ZN9LAMMPS_NS3Run7commandEiPPc+0x14fc)[0x1098148c]
[r233n16:30209] [20] lmp_kokkos_cuda_mpi(_ZN9LAMMPS_NS5Input15execute_commandEv+0x2bf0)[0x1091c6f0]
[r233n16:30209] [21] lmp_kokkos_cuda_mpi(_ZN9LAMMPS_NS5Input4fileEv+0x2b0)[0x1091d3b0]
[r233n16:30209] [22] lmp_kokkos_cuda_mpi(main+0x6c)[0x1086af4c]
[r233n16:30209] [23] /lib64/power9/libc.so.6(+0x241f8)[0x20000bb441f8]
[r233n16:30209] [24] /lib64/power9/libc.so.6(__libc_start_main+0xb4)[0x20000bb443e4]
[r233n16:30209] *** End of error message ***
terminate called after throwing an instance of 'std::runtime_error'
  what():  Kokkos failed to allocate memory for label "atom:f".  Allocation using MemorySpace named "Cuda" failed with the following error:  Allocation of size 78.03 K failed, likely due to insufficient memory.  (The allocation mechanism was cudaMalloc().  The Cuda allocation returned the error code ""cudaErrorMemoryAllocation".)

Traceback functionality not available

[r233n16:30208] *** Process received signal ***
[r233n16:30208] Signal: Aborted (6)
[r233n16:30208] Signal code:  (-6)
[r233n16:30208] [ 0] linux-vdso64.so.1(__kernel_sigtramp_rt64+0x0)[0x2000000504d8]
[r233n16:30208] [ 1] /lib64/power9/libc.so.6(gsignal+0xd8)[0x20000bb63798]
[r233n16:30208] [ 2] /lib64/power9/libc.so.6(abort+0x164)[0x20000bb43bac]
[r233n16:30208] [ 3] /cineca/prod/opt/compilers/gnu/8.4.0/none/lib64/libstdc++.so.6(_ZN9__gnu_cxx27__verbose_terminate_handlerEv+0x158)[0x20000b32bd38]
[r233n16:30208] [ 4] /cineca/prod/opt/compilers/gnu/8.4.0/none/lib64/libstdc++.so.6(+0xb6c44)[0x20000b326c44]
[r233n16:30208] [ 5] /cineca/prod/opt/compilers/gnu/8.4.0/none/lib64/libstdc++.so.6(_ZSt9terminatev+0x20)[0x20000b326d00]
[r233n16:30208] [ 6] /cineca/prod/opt/compilers/gnu/8.4.0/none/lib64/libstdc++.so.6(__cxa_throw+0x7c)[0x20000b3271dc]
[r233n16:30208] [ 7] lmp_kokkos_cuda_mpi(_ZN6Kokkos4Impl23throw_runtime_exceptionERKNSt7__cxx1112basic_stringIcSt11char_traitsIcESaIcEEE+0xac)[0x12bd189c]
[r233n16:30208] [ 8] lmp_kokkos_cuda_mpi(_ZN6Kokkos4Impl41safe_throw_allocation_with_header_failureERKNSt7__cxx1112basic_stringIcSt11char_traitsIcESaIcEEES8_RKNS_12Experimental26RawMemoryAllocationFailureE+0x224)[0x12be1654]
[r233n16:30208] [ 9] lmp_kokkos_cuda_mpi(_ZN6Kokkos4Impl30checked_allocation_with_headerINS_9CudaSpaceEEEPNS0_22SharedAllocationHeaderERKT_RKNSt7__cxx1112basic_stringIcSt11char_traitsIcESaIcEEEm+0x80)[0x12be1010]
[r233n16:30208] [10] lmp_kokkos_cuda_mpi(_ZN6Kokkos4Impl22SharedAllocationRecordINS_9CudaSpaceEvEC1ERKS2_RKNSt7__cxx1112basic_stringIcSt11char_traitsIcESaIcEEEmPFvPNS1_IvvEEE+0x4c)[0x12bdd35c]
[r233n16:30208] [11] lmp_kokkos_cuda_mpi(_ZN6Kokkos4ViewIA3_PdJNS_11LayoutRightENS_4CudaEvEEC2INSt7__cxx1112basic_stringIcSt11char_traitsIcESaIcEEEEERKT_NSt9enable_ifIXsrNS_4Impl13is_view_labelISD_EE5valueEKmE4typeEmmmmmmm+0x1c0)[0x10a166b0]
[r233n16:30208] [12] lmp_kokkos_cuda_mpi(_ZN6Kokkos8DualViewIA3_PdNS_11LayoutRightENS_4CudaEvE6resizeEmmmmmmmm+0xf8)[0x10a2b868]
[r233n16:30208] [13] lmp_kokkos_cuda_mpi(_ZN9LAMMPS_NS12MemoryKokkos11grow_kokkosIN6Kokkos8DualViewIA3_PdNS2_11LayoutRightENS2_4CudaEvEEEET_RS9_RPPNS9_10value_typeEiPKc+0x78)[0x10a2c7b8]
[r233n16:30208] [14] lmp_kokkos_cuda_mpi(_ZN9LAMMPS_NS19AtomVecAtomicKokkos4growEi+0x27c)[0x1262e9dc]
[r233n16:30208] [15] lmp_kokkos_cuda_mpi(_ZN9LAMMPS_NS19AtomVecAtomicKokkos20unpack_border_kokkosERKiS2_RKN6Kokkos8DualViewIPPdNS3_11LayoutRightENS3_4CudaEvEENS_14ExecutionSpaceE+0x8c)[0x12629a4c]
[r233n16:30208] [16] lmp_kokkos_cuda_mpi(_ZN9LAMMPS_NS10CommKokkos14borders_deviceIN6Kokkos4CudaEEEvv+0x5b0)[0x11258710]
[r233n16:30208] [17] lmp_kokkos_cuda_mpi(_ZN9LAMMPS_NS10CommKokkos7bordersEv+0x248)[0x1124a798]
[r233n16:30208] [18] lmp_kokkos_cuda_mpi(_ZN9LAMMPS_NS12VerletKokkos5setupEi+0x1d0)[0x12b3e0c0]
[r233n16:30208] [19] lmp_kokkos_cuda_mpi(_ZN9LAMMPS_NS3Run7commandEiPPc+0x14fc)[0x1098148c]
[r233n16:30208] [20] lmp_kokkos_cuda_mpi(_ZN9LAMMPS_NS5Input15execute_commandEv+0x2bf0)[0x1091c6f0]
[r233n16:30208] [21] lmp_kokkos_cuda_mpi(_ZN9LAMMPS_NS5Input4fileEv+0x2b0)[0x1091d3b0]
[r233n16:30208] [22] lmp_kokkos_cuda_mpi(main+0x6c)[0x1086af4c]
[r233n16:30208] [23] /lib64/power9/libc.so.6(+0x241f8)[0x20000bb441f8]
[r233n16:30208] [24] /lib64/power9/libc.so.6(__libc_start_main+0xb4)[0x20000bb443e4]
[r233n16:30208] *** End of error message ***
terminate called after throwing an instance of 'std::runtime_error'
  what():  Kokkos failed to allocate memory for label "atom:f".  Allocation using MemorySpace named "Cuda" failed with the following error:  Allocation of size 78.03 K failed, likely due to insufficient memory.  (The allocation mechanism was cudaMalloc().  The Cuda allocation returned the error code ""cudaErrorMemoryAllocation".)

Traceback functionality not available

[r229n16:104068] *** Process received signal ***
[r229n16:104068] Signal: Aborted (6)
[r229n16:104068] Signal code:  (-6)
[r229n16:104068] [ 0] linux-vdso64.so.1(__kernel_sigtramp_rt64+0x0)[0x2000000504d8]
[r229n16:104068] [ 1] /lib64/power9/libc.so.6(gsignal+0xd8)[0x20000bb63798]
[r229n16:104068] [ 2] /lib64/power9/libc.so.6(abort+0x164)[0x20000bb43bac]
[r229n16:104068] [ 3] /cineca/prod/opt/compilers/gnu/8.4.0/none/lib64/libstdc++.so.6(_ZN9__gnu_cxx27__verbose_terminate_handlerEv+0x158)[0x20000b32bd38]
[r229n16:104068] [ 4] /cineca/prod/opt/compilers/gnu/8.4.0/none/lib64/libstdc++.so.6(+0xb6c44)[0x20000b326c44]
[r229n16:104068] [ 5] /cineca/prod/opt/compilers/gnu/8.4.0/none/lib64/libstdc++.so.6(_ZSt9terminatev+0x20)[0x20000b326d00]
[r229n16:104068] [ 6] /cineca/prod/opt/compilers/gnu/8.4.0/none/lib64/libstdc++.so.6(__cxa_throw+0x7c)[0x20000b3271dc]
[r229n16:104068] [ 7] lmp_kokkos_cuda_mpi(_ZN6Kokkos4Impl23throw_runtime_exceptionERKNSt7__cxx1112basic_stringIcSt11char_traitsIcESaIcEEE+0xac)[0x12bd189c]
[r229n16:104068] [ 8] lmp_kokkos_cuda_mpi(_ZN6Kokkos4Impl41safe_throw_allocation_with_header_failureERKNSt7__cxx1112basic_stringIcSt11char_traitsIcESaIcEEES8_RKNS_12Experimental26RawMemoryAllocationFailureE+0x224)[0x12be1654]
[r229n16:104068] [ 9] lmp_kokkos_cuda_mpi(_ZN6Kokkos4Impl30checked_allocation_with_headerINS_9CudaSpaceEEEPNS0_22SharedAllocationHeaderERKT_RKNSt7__cxx1112basic_stringIcSt11char_traitsIcESaIcEEEm+0x80)[0x12be1010]
[r229n16:104068] [10] lmp_kokkos_cuda_mpi(_ZN6Kokkos4Impl22SharedAllocationRecordINS_9CudaSpaceEvEC1ERKS2_RKNSt7__cxx1112basic_stringIcSt11char_traitsIcESaIcEEEmPFvPNS1_IvvEEE+0x4c)[0x12bdd35c]
[r229n16:104068] [11] lmp_kokkos_cuda_mpi(_ZN6Kokkos4ViewIA3_PdJNS_11LayoutRightENS_4CudaEvEEC2INSt7__cxx1112basic_stringIcSt11char_traitsIcESaIcEEEEERKT_NSt9enable_ifIXsrNS_4Impl13is_view_labelISD_EE5valueEKmE4typeEmmmmmmm+0x1c0)[0x10a166b0]
[r229n16:104068] [12] lmp_kokkos_cuda_mpi(_ZN6Kokkos8DualViewIA3_PdNS_11LayoutRightENS_4CudaEvE6resizeEmmmmmmmm+0xf8)[0x10a2b868]
[r229n16:104068] [13] lmp_kokkos_cuda_mpi(_ZN9LAMMPS_NS12MemoryKokkos11grow_kokkosIN6Kokkos8DualViewIA3_PdNS2_11LayoutRightENS2_4CudaEvEEEET_RS9_RPPNS9_10value_typeEiPKc+0x78)[0x10a2c7b8]
[r229n16:104068] [14] lmp_kokkos_cuda_mpi(_ZN9LAMMPS_NS19AtomVecAtomicKokkos4growEi+0x27c)[0x1262e9dc]
[r229n16:104068] [15] lmp_kokkos_cuda_mpi(_ZN9LAMMPS_NS19AtomVecAtomicKokkos20unpack_border_kokkosERKiS2_RKN6Kokkos8DualViewIPPdNS3_11LayoutRightENS3_4CudaEvEENS_14ExecutionSpaceE+0x8c)[0x12629a4c]
[r229n16:104068] [16] lmp_kokkos_cuda_mpi(_ZN9LAMMPS_NS10CommKokkos14borders_deviceIN6Kokkos4CudaEEEvv+0x5b0)[0x11258710]
[r229n16:104068] [17] lmp_kokkos_cuda_mpi(_ZN9LAMMPS_NS10CommKokkos7bordersEv+0x248)[0x1124a798]
[r229n16:104068] [18] lmp_kokkos_cuda_mpi(_ZN9LAMMPS_NS12VerletKokkos5setupEi+0x1d0)[0x12b3e0c0]
[r229n16:104068] [19] lmp_kokkos_cuda_mpi(_ZN9LAMMPS_NS3Run7commandEiPPc+0x14fc)[0x1098148c]
[r229n16:104068] [20] lmp_kokkos_cuda_mpi(_ZN9LAMMPS_NS5Input15execute_commandEv+0x2bf0)[0x1091c6f0]
[r229n16:104068] [21] lmp_kokkos_cuda_mpi(_ZN9LAMMPS_NS5Input4fileEv+0x2b0)[0x1091d3b0]
[r229n16:104068] [22] lmp_kokkos_cuda_mpi(main+0x6c)[0x1086af4c]
[r229n16:104068] [23] /lib64/power9/libc.so.6(+0x241f8)[0x20000bb441f8]
[r229n16:104068] [24] /lib64/power9/libc.so.6(__libc_start_main+0xb4)[0x20000bb443e4]
[r229n16:104068] *** End of error message ***
terminate called after throwing an instance of 'std::runtime_error'
  what():  Kokkos failed to allocate memory for label "atom:f".  Allocation using MemorySpace named "Cuda" failed with the following error:  Allocation of size 78.03 K failed, likely due to insufficient memory.  (The allocation mechanism was cudaMalloc().  The Cuda allocation returned the error code ""cudaErrorMemoryAllocation".)

Traceback functionality not available

[r233n16:30214] *** Process received signal ***
[r233n16:30214] Signal: Aborted (6)
[r233n16:30214] Signal code:  (-6)
[r233n16:30214] [ 0] linux-vdso64.so.1(__kernel_sigtramp_rt64+0x0)[0x2000000504d8]
[r233n16:30214] [ 1] /lib64/power9/libc.so.6(gsignal+0xd8)[0x20000bb63798]
[r233n16:30214] [ 2] /lib64/power9/libc.so.6(abort+0x164)[0x20000bb43bac]
[r233n16:30214] [ 3] /cineca/prod/opt/compilers/gnu/8.4.0/none/lib64/libstdc++.so.6(_ZN9__gnu_cxx27__verbose_terminate_handlerEv+0x158)[0x20000b32bd38]
[r233n16:30214] [ 4] /cineca/prod/opt/compilers/gnu/8.4.0/none/lib64/libstdc++.so.6(+0xb6c44)[0x20000b326c44]
[r233n16:30214] [ 5] /cineca/prod/opt/compilers/gnu/8.4.0/none/lib64/libstdc++.so.6(_ZSt9terminatev+0x20)[0x20000b326d00]
[r233n16:30214] [ 6] /cineca/prod/opt/compilers/gnu/8.4.0/none/lib64/libstdc++.so.6(__cxa_throw+0x7c)[0x20000b3271dc]
[r233n16:30214] [ 7] lmp_kokkos_cuda_mpi(_ZN6Kokkos4Impl23throw_runtime_exceptionERKNSt7__cxx1112basic_stringIcSt11char_traitsIcESaIcEEE+0xac)[0x12bd189c]
[r233n16:30214] [ 8] lmp_kokkos_cuda_mpi(_ZN6Kokkos4Impl41safe_throw_allocation_with_header_failureERKNSt7__cxx1112basic_stringIcSt11char_traitsIcESaIcEEES8_RKNS_12Experimental26RawMemoryAllocationFailureE+0x224)[0x12be1654]
[r233n16:30214] [ 9] lmp_kokkos_cuda_mpi(_ZN6Kokkos4Impl30checked_allocation_with_headerINS_9CudaSpaceEEEPNS0_22SharedAllocationHeaderERKT_RKNSt7__cxx1112basic_stringIcSt11char_traitsIcESaIcEEEm+0x80)[0x12be1010]
[r233n16:30214] [10] lmp_kokkos_cuda_mpi(_ZN6Kokkos4Impl22SharedAllocationRecordINS_9CudaSpaceEvEC1ERKS2_RKNSt7__cxx1112basic_stringIcSt11char_traitsIcESaIcEEEmPFvPNS1_IvvEEE+0x4c)[0x12bdd35c]
[r233n16:30214] [11] lmp_kokkos_cuda_mpi(_ZN6Kokkos4ViewIA3_PdJNS_11LayoutRightENS_4CudaEvEEC2INSt7__cxx1112basic_stringIcSt11char_traitsIcESaIcEEEEERKT_NSt9enable_ifIXsrNS_4Impl13is_view_labelISD_EE5valueEKmE4typeEmmmmmmm+0x1c0)[0x10a166b0]
[r233n16:30214] [12] lmp_kokkos_cuda_mpi(_ZN6Kokkos8DualViewIA3_PdNS_11LayoutRightENS_4CudaEvE6resizeEmmmmmmmm+0xf8)[0x10a2b868]
[r233n16:30214] [13] lmp_kokkos_cuda_mpi(_ZN9LAMMPS_NS12MemoryKokkos11grow_kokkosIN6Kokkos8DualViewIA3_PdNS2_11LayoutRightENS2_4CudaEvEEEET_RS9_RPPNS9_10value_typeEiPKc+0x78)[0x10a2c7b8]
[r233n16:30214] [14] lmp_kokkos_cuda_mpi(_ZN9LAMMPS_NS19AtomVecAtomicKokkos4growEi+0x27c)[0x1262e9dc]
[r233n16:30214] [15] lmp_kokkos_cuda_mpi(_ZN9LAMMPS_NS19AtomVecAtomicKokkos20unpack_border_kokkosERKiS2_RKN6Kokkos8DualViewIPPdNS3_11LayoutRightENS3_4CudaEvEENS_14ExecutionSpaceE+0x8c)[0x12629a4c]
[r233n16:30214] [16] lmp_kokkos_cuda_mpi(_ZN9LAMMPS_NS10CommKokkos14borders_deviceIN6Kokkos4CudaEEEvv+0x5b0)[0x11258710]
[r233n16:30214] [17] lmp_kokkos_cuda_mpi(_ZN9LAMMPS_NS10CommKokkos7bordersEv+0x248)[0x1124a798]
[r233n16:30214] [18] lmp_kokkos_cuda_mpi(_ZN9LAMMPS_NS12VerletKokkos5setupEi+0x1d0)[0x12b3e0c0]
[r233n16:30214] [19] lmp_kokkos_cuda_mpi(_ZN9LAMMPS_NS3Run7commandEiPPc+0x14fc)[0x1098148c]
[r233n16:30214] [20] lmp_kokkos_cuda_mpi(_ZN9LAMMPS_NS5Input15execute_commandEv+0x2bf0)[0x1091c6f0]
[r233n16:30214] [21] lmp_kokkos_cuda_mpi(_ZN9LAMMPS_NS5Input4fileEv+0x2b0)[0x1091d3b0]
[r233n16:30214] [22] lmp_kokkos_cuda_mpi(main+0x6c)[0x1086af4c]
[r233n16:30214] [23] /lib64/power9/libc.so.6(+0x241f8)[0x20000bb441f8]
[r233n16:30214] [24] /lib64/power9/libc.so.6(__libc_start_main+0xb4)[0x20000bb443e4]
[r233n16:30214] *** End of error message ***
terminate called after throwing an instance of 'std::runtime_error'
  what():  Kokkos failed to allocate memory for label "atom:f".  Allocation using MemorySpace named "Cuda" failed with the following error:  Allocation of size 78.03 K failed, likely due to insufficient memory.  (The allocation mechanism was cudaMalloc().  The Cuda allocation returned the error code ""cudaErrorMemoryAllocation".)

Traceback functionality not available

[r233n16:30211] *** Process received signal ***
[r233n16:30211] Signal: Aborted (6)
[r233n16:30211] Signal code:  (-6)
[r233n16:30211] [ 0] linux-vdso64.so.1(__kernel_sigtramp_rt64+0x0)[0x2000000504d8]
[r233n16:30211] [ 1] /lib64/power9/libc.so.6(gsignal+0xd8)[0x20000bb63798]
[r233n16:30211] [ 2] /lib64/power9/libc.so.6(abort+0x164)[0x20000bb43bac]
[r233n16:30211] [ 3] /cineca/prod/opt/compilers/gnu/8.4.0/none/lib64/libstdc++.so.6(_ZN9__gnu_cxx27__verbose_terminate_handlerEv+0x158)[0x20000b32bd38]
[r233n16:30211] [ 4] /cineca/prod/opt/compilers/gnu/8.4.0/none/lib64/libstdc++.so.6(+0xb6c44)[0x20000b326c44]
[r233n16:30211] [ 5] /cineca/prod/opt/compilers/gnu/8.4.0/none/lib64/libstdc++.so.6(_ZSt9terminatev+0x20)[0x20000b326d00]
[r233n16:30211] [ 6] /cineca/prod/opt/compilers/gnu/8.4.0/none/lib64/libstdc++.so.6(__cxa_throw+0x7c)[0x20000b3271dc]
[r233n16:30211] [ 7] lmp_kokkos_cuda_mpi(_ZN6Kokkos4Impl23throw_runtime_exceptionERKNSt7__cxx1112basic_stringIcSt11char_traitsIcESaIcEEE+0xac)[0x12bd189c]
[r233n16:30211] [ 8] lmp_kokkos_cuda_mpi(_ZN6Kokkos4Impl41safe_throw_allocation_with_header_failureERKNSt7__cxx1112basic_stringIcSt11char_traitsIcESaIcEEES8_RKNS_12Experimental26RawMemoryAllocationFailureE+0x224)[0x12be1654]
[r233n16:30211] [ 9] lmp_kokkos_cuda_mpi(_ZN6Kokkos4Impl30checked_allocation_with_headerINS_9CudaSpaceEEEPNS0_22SharedAllocationHeaderERKT_RKNSt7__cxx1112basic_stringIcSt11char_traitsIcESaIcEEEm+0x80)[0x12be1010]
[r233n16:30211] [10] lmp_kokkos_cuda_mpi(_ZN6Kokkos4Impl22SharedAllocationRecordINS_9CudaSpaceEvEC1ERKS2_RKNSt7__cxx1112basic_stringIcSt11char_traitsIcESaIcEEEmPFvPNS1_IvvEEE+0x4c)[0x12bdd35c]
[r233n16:30211] [11] lmp_kokkos_cuda_mpi(_ZN6Kokkos4ViewIA3_PdJNS_11LayoutRightENS_4CudaEvEEC2INSt7__cxx1112basic_stringIcSt11char_traitsIcESaIcEEEEERKT_NSt9enable_ifIXsrNS_4Impl13is_view_labelISD_EE5valueEKmE4typeEmmmmmmm+0x1c0)[0x10a166b0]
[r233n16:30211] [12] lmp_kokkos_cuda_mpi(_ZN6Kokkos8DualViewIA3_PdNS_11LayoutRightENS_4CudaEvE6resizeEmmmmmmmm+0xf8)[0x10a2b868]
[r233n16:30211] [13] lmp_kokkos_cuda_mpi(_ZN9LAMMPS_NS12MemoryKokkos11grow_kokkosIN6Kokkos8DualViewIA3_PdNS2_11LayoutRightENS2_4CudaEvEEEET_RS9_RPPNS9_10value_typeEiPKc+0x78)[0x10a2c7b8]
[r233n16:30211] [14] lmp_kokkos_cuda_mpi(_ZN9LAMMPS_NS19AtomVecAtomicKokkos4growEi+0x27c)[0x1262e9dc]
[r233n16:30211] [15] lmp_kokkos_cuda_mpi(_ZN9LAMMPS_NS19AtomVecAtomicKokkos20unpack_border_kokkosERKiS2_RKN6Kokkos8DualViewIPPdNS3_11LayoutRightENS3_4CudaEvEENS_14ExecutionSpaceE+0x8c)[0x12629a4c]
[r233n16:30211] [16] lmp_kokkos_cuda_mpi(_ZN9LAMMPS_NS10CommKokkos14borders_deviceIN6Kokkos4CudaEEEvv+0x5b0)[0x11258710]
[r233n16:30211] [17] lmp_kokkos_cuda_mpi(_ZN9LAMMPS_NS10CommKokkos7bordersEv+0x248)[0x1124a798]
[r233n16:30211] [18] lmp_kokkos_cuda_mpi(_ZN9LAMMPS_NS12VerletKokkos5setupEi+0x1d0)[0x12b3e0c0]
[r233n16:30211] [19] lmp_kokkos_cuda_mpi(_ZN9LAMMPS_NS3Run7commandEiPPc+0x14fc)[0x1098148c]
[r233n16:30211] [20] lmp_kokkos_cuda_mpi(_ZN9LAMMPS_NS5Input15execute_commandEv+0x2bf0)[0x1091c6f0]
[r233n16:30211] [21] lmp_kokkos_cuda_mpi(_ZN9LAMMPS_NS5Input4fileEv+0x2b0)[0x1091d3b0]
[r233n16:30211] [22] lmp_kokkos_cuda_mpi(main+0x6c)[0x1086af4c]
[r233n16:30211] [23] /lib64/power9/libc.so.6(+0x241f8)[0x20000bb441f8]
[r233n16:30211] [24] /lib64/power9/libc.so.6(__libc_start_main+0xb4)[0x20000bb443e4]
[r233n16:30211] *** End of error message ***
terminate called after throwing an instance of 'std::runtime_error'
  what():  Kokkos failed to allocate memory for label "atom:f".  Allocation using MemorySpace named "Cuda" failed with the following error:  Allocation of size 78.03 K failed, likely due to insufficient memory.  (The allocation mechanism was cudaMalloc().  The Cuda allocation returned the error code ""cudaErrorMemoryAllocation".)

Traceback functionality not available

[r233n16:30187] *** Process received signal ***
[r233n16:30187] Signal: Aborted (6)
[r233n16:30187] Signal code:  (-6)
[r233n16:30187] [ 0] linux-vdso64.so.1(__kernel_sigtramp_rt64+0x0)[0x2000000504d8]
[r233n16:30187] [ 1] /lib64/power9/libc.so.6(gsignal+0xd8)[0x20000bb63798]
[r233n16:30187] [ 2] /lib64/power9/libc.so.6(abort+0x164)[0x20000bb43bac]
[r233n16:30187] [ 3] /cineca/prod/opt/compilers/gnu/8.4.0/none/lib64/libstdc++.so.6(_ZN9__gnu_cxx27__verbose_terminate_handlerEv+0x158)[0x20000b32bd38]
[r233n16:30187] [ 4] /cineca/prod/opt/compilers/gnu/8.4.0/none/lib64/libstdc++.so.6(+0xb6c44)[0x20000b326c44]
[r233n16:30187] [ 5] /cineca/prod/opt/compilers/gnu/8.4.0/none/lib64/libstdc++.so.6(_ZSt9terminatev+0x20)[0x20000b326d00]
[r233n16:30187] [ 6] /cineca/prod/opt/compilers/gnu/8.4.0/none/lib64/libstdc++.so.6(__cxa_throw+0x7c)[0x20000b3271dc]
[r233n16:30187] [ 7] lmp_kokkos_cuda_mpi(_ZN6Kokkos4Impl23throw_runtime_exceptionERKNSt7__cxx1112basic_stringIcSt11char_traitsIcESaIcEEE+0xac)[0x12bd189c]
[r233n16:30187] [ 8] lmp_kokkos_cuda_mpi(_ZN6Kokkos4Impl41safe_throw_allocation_with_header_failureERKNSt7__cxx1112basic_stringIcSt11char_traitsIcESaIcEEES8_RKNS_12Experimental26RawMemoryAllocationFailureE+0x224)[0x12be1654]
[r233n16:30187] [ 9] lmp_kokkos_cuda_mpi(_ZN6Kokkos4Impl30checked_allocation_with_headerINS_9CudaSpaceEEEPNS0_22SharedAllocationHeaderERKT_RKNSt7__cxx1112basic_stringIcSt11char_traitsIcESaIcEEEm+0x80)[0x12be1010]
[r233n16:30187] [10] lmp_kokkos_cuda_mpi(_ZN6Kokkos4Impl22SharedAllocationRecordINS_9CudaSpaceEvEC1ERKS2_RKNSt7__cxx1112basic_stringIcSt11char_traitsIcESaIcEEEmPFvPNS1_IvvEEE+0x4c)[0x12bdd35c]
[r233n16:30187] [11] lmp_kokkos_cuda_mpi(_ZN6Kokkos4ViewIA3_PdJNS_11LayoutRightENS_4CudaEvEEC2INSt7__cxx1112basic_stringIcSt11char_traitsIcESaIcEEEEERKT_NSt9enable_ifIXsrNS_4Impl13is_view_labelISD_EE5valueEKmE4typeEmmmmmmm+0x1c0)[0x10a166b0]
[r233n16:30187] [12] lmp_kokkos_cuda_mpi(_ZN6Kokkos8DualViewIA3_PdNS_11LayoutRightENS_4CudaEvE6resizeEmmmmmmmm+0xf8)[0x10a2b868]
[r233n16:30187] [13] lmp_kokkos_cuda_mpi(_ZN9LAMMPS_NS12MemoryKokkos11grow_kokkosIN6Kokkos8DualViewIA3_PdNS2_11LayoutRightENS2_4CudaEvEEEET_RS9_RPPNS9_10value_typeEiPKc+0x78)[0x10a2c7b8]
[r233n16:30187] [14] lmp_kokkos_cuda_mpi(_ZN9LAMMPS_NS19AtomVecAtomicKokkos4growEi+0x27c)[0x1262e9dc]
[r233n16:30187] [15] lmp_kokkos_cuda_mpi(_ZN9LAMMPS_NS19AtomVecAtomicKokkos20unpack_border_kokkosERKiS2_RKN6Kokkos8DualViewIPPdNS3_11LayoutRightENS3_4CudaEvEENS_14ExecutionSpaceE+0x8c)[0x12629a4c]
[r233n16:30187] [16] lmp_kokkos_cuda_mpi(_ZN9LAMMPS_NS10CommKokkos14borders_deviceIN6Kokkos4CudaEEEvv+0x5b0)[0x11258710]
[r233n16:30187] [17] lmp_kokkos_cuda_mpi(_ZN9LAMMPS_NS10CommKokkos7bordersEv+0x248)[0x1124a798]
[r233n16:30187] [18] lmp_kokkos_cuda_mpi(_ZN9LAMMPS_NS12VerletKokkos5setupEi+0x1d0)[0x12b3e0c0]
[r233n16:30187] [19] lmp_kokkos_cuda_mpi(_ZN9LAMMPS_NS3Run7commandEiPPc+0x14fc)[0x1098148c]
[r233n16:30187] [20] lmp_kokkos_cuda_mpi(_ZN9LAMMPS_NS5Input15execute_commandEv+0x2bf0)[0x1091c6f0]
[r233n16:30187] [21] lmp_kokkos_cuda_mpi(_ZN9LAMMPS_NS5Input4fileEv+0x2b0)[0x1091d3b0]
[r233n16:30187] [22] lmp_kokkos_cuda_mpi(main+0x6c)[0x1086af4c]
[r233n16:30187] [23] /lib64/power9/libc.so.6(+0x241f8)[0x20000bb441f8]
[r233n16:30187] [24] /lib64/power9/libc.so.6(__libc_start_main+0xb4)[0x20000bb443e4]
[r233n16:30187] *** End of error message ***
terminate called after throwing an instance of 'std::runtime_error'
  what():  Kokkos failed to allocate memory for label "atom:f".  Allocation using MemorySpace named "Cuda" failed with the following error:  Allocation of size 78.03 K failed, likely due to insufficient memory.  (The allocation mechanism was cudaMalloc().  The Cuda allocation returned the error code ""cudaErrorMemoryAllocation".)

Traceback functionality not available

[r233n16:30186] *** Process received signal ***
[r233n16:30186] Signal: Aborted (6)
[r233n16:30186] Signal code:  (-6)
[r233n16:30186] [ 0] linux-vdso64.so.1(__kernel_sigtramp_rt64+0x0)[0x2000000504d8]
[r233n16:30186] [ 1] /lib64/power9/libc.so.6(gsignal+0xd8)[0x20000bb63798]
[r233n16:30186] [ 2] /lib64/power9/libc.so.6(abort+0x164)[0x20000bb43bac]
[r233n16:30186] [ 3] /cineca/prod/opt/compilers/gnu/8.4.0/none/lib64/libstdc++.so.6(_ZN9__gnu_cxx27__verbose_terminate_handlerEv+0x158)[0x20000b32bd38]
[r233n16:30186] [ 4] /cineca/prod/opt/compilers/gnu/8.4.0/none/lib64/libstdc++.so.6(+0xb6c44)[0x20000b326c44]
[r233n16:30186] [ 5] /cineca/prod/opt/compilers/gnu/8.4.0/none/lib64/libstdc++.so.6(_ZSt9terminatev+0x20)[0x20000b326d00]
[r233n16:30186] [ 6] /cineca/prod/opt/compilers/gnu/8.4.0/none/lib64/libstdc++.so.6(__cxa_throw+0x7c)[0x20000b3271dc]
[r233n16:30186] [ 7] lmp_kokkos_cuda_mpi(_ZN6Kokkos4Impl23throw_runtime_exceptionERKNSt7__cxx1112basic_stringIcSt11char_traitsIcESaIcEEE+0xac)[0x12bd189c]
[r233n16:30186] [ 8] lmp_kokkos_cuda_mpi(_ZN6Kokkos4Impl41safe_throw_allocation_with_header_failureERKNSt7__cxx1112basic_stringIcSt11char_traitsIcESaIcEEES8_RKNS_12Experimental26RawMemoryAllocationFailureE+0x224)[0x12be1654]
[r233n16:30186] [ 9] lmp_kokkos_cuda_mpi(_ZN6Kokkos4Impl30checked_allocation_with_headerINS_9CudaSpaceEEEPNS0_22SharedAllocationHeaderERKT_RKNSt7__cxx1112basic_stringIcSt11char_traitsIcESaIcEEEm+0x80)[0x12be1010]
[r233n16:30186] [10] lmp_kokkos_cuda_mpi(_ZN6Kokkos4Impl22SharedAllocationRecordINS_9CudaSpaceEvEC1ERKS2_RKNSt7__cxx1112basic_stringIcSt11char_traitsIcESaIcEEEmPFvPNS1_IvvEEE+0x4c)[0x12bdd35c]
[r233n16:30186] [11] lmp_kokkos_cuda_mpi(_ZN6Kokkos4ViewIA3_PdJNS_11LayoutRightENS_4CudaEvEEC2INSt7__cxx1112basic_stringIcSt11char_traitsIcESaIcEEEEERKT_NSt9enable_ifIXsrNS_4Impl13is_view_labelISD_EE5valueEKmE4typeEmmmmmmm+0x1c0)[0x10a166b0]
[r233n16:30186] [12] lmp_kokkos_cuda_mpi(_ZN6Kokkos8DualViewIA3_PdNS_11LayoutRightENS_4CudaEvE6resizeEmmmmmmmm+0xf8)[0x10a2b868]
[r233n16:30186] [13] lmp_kokkos_cuda_mpi(_ZN9LAMMPS_NS12MemoryKokkos11grow_kokkosIN6Kokkos8DualViewIA3_PdNS2_11LayoutRightENS2_4CudaEvEEEET_RS9_RPPNS9_10value_typeEiPKc+0x78)[0x10a2c7b8]
[r233n16:30186] [14] lmp_kokkos_cuda_mpi(_ZN9LAMMPS_NS19AtomVecAtomicKokkos4growEi+0x27c)[0x1262e9dc]
[r233n16:30186] [15] lmp_kokkos_cuda_mpi(_ZN9LAMMPS_NS19AtomVecAtomicKokkos20unpack_border_kokkosERKiS2_RKN6Kokkos8DualViewIPPdNS3_11LayoutRightENS3_4CudaEvEENS_14ExecutionSpaceE+0x8c)[0x12629a4c]
[r233n16:30186] [16] lmp_kokkos_cuda_mpi(_ZN9LAMMPS_NS10CommKokkos14borders_deviceIN6Kokkos4CudaEEEvv+0x5b0)[0x11258710]
[r233n16:30186] [17] lmp_kokkos_cuda_mpi(_ZN9LAMMPS_NS10CommKokkos7bordersEv+0x248)[0x1124a798]
[r233n16:30186] [18] lmp_kokkos_cuda_mpi(_ZN9LAMMPS_NS12VerletKokkos5setupEi+0x1d0)[0x12b3e0c0]
[r233n16:30186] [19] lmp_kokkos_cuda_mpi(_ZN9LAMMPS_NS3Run7commandEiPPc+0x14fc)[0x1098148c]
[r233n16:30186] [20] lmp_kokkos_cuda_mpi(_ZN9LAMMPS_NS5Input15execute_commandEv+0x2bf0)[0x1091c6f0]
[r233n16:30186] [21] lmp_kokkos_cuda_mpi(_ZN9LAMMPS_NS5Input4fileEv+0x2b0)[0x1091d3b0]
[r233n16:30186] [22] lmp_kokkos_cuda_mpi(main+0x6c)[0x1086af4c]
[r233n16:30186] [23] /lib64/power9/libc.so.6(+0x241f8)[0x20000bb441f8]
[r233n16:30186] [24] /lib64/power9/libc.so.6(__libc_start_main+0xb4)[0x20000bb443e4]
[r233n16:30186] *** End of error message ***
terminate called after throwing an instance of 'std::runtime_error'
  what():  Kokkos failed to allocate memory for label "atom:f".  Allocation using MemorySpace named "Cuda" failed with the following error:  Allocation of size 78.03 K failed, likely due to insufficient memory.  (The allocation mechanism was cudaMalloc().  The Cuda allocation returned the error code ""cudaErrorMemoryAllocation".)

Traceback functionality not available

[r233n16:30184] *** Process received signal ***
[r233n16:30184] Signal: Aborted (6)
[r233n16:30184] Signal code:  (-6)
[r233n16:30184] [ 0] linux-vdso64.so.1(__kernel_sigtramp_rt64+0x0)[0x2000000504d8]
[r233n16:30184] [ 1] /lib64/power9/libc.so.6(gsignal+0xd8)[0x20000bb63798]
[r233n16:30184] [ 2] /lib64/power9/libc.so.6(abort+0x164)[0x20000bb43bac]
[r233n16:30184] [ 3] /cineca/prod/opt/compilers/gnu/8.4.0/none/lib64/libstdc++.so.6(_ZN9__gnu_cxx27__verbose_terminate_handlerEv+0x158)[0x20000b32bd38]
[r233n16:30184] [ 4] /cineca/prod/opt/compilers/gnu/8.4.0/none/lib64/libstdc++.so.6(+0xb6c44)[0x20000b326c44]
[r233n16:30184] [ 5] /cineca/prod/opt/compilers/gnu/8.4.0/none/lib64/libstdc++.so.6(_ZSt9terminatev+0x20)[0x20000b326d00]
[r233n16:30184] [ 6] /cineca/prod/opt/compilers/gnu/8.4.0/none/lib64/libstdc++.so.6(__cxa_throw+0x7c)[0x20000b3271dc]
[r233n16:30184] [ 7] lmp_kokkos_cuda_mpi(_ZN6Kokkos4Impl23throw_runtime_exceptionERKNSt7__cxx1112basic_stringIcSt11char_traitsIcESaIcEEE+0xac)[0x12bd189c]
[r233n16:30184] [ 8] lmp_kokkos_cuda_mpi(_ZN6Kokkos4Impl41safe_throw_allocation_with_header_failureERKNSt7__cxx1112basic_stringIcSt11char_traitsIcESaIcEEES8_RKNS_12Experimental26RawMemoryAllocationFailureE+0x224)[0x12be1654]
[r233n16:30184] [ 9] lmp_kokkos_cuda_mpi(_ZN6Kokkos4Impl30checked_allocation_with_headerINS_9CudaSpaceEEEPNS0_22SharedAllocationHeaderERKT_RKNSt7__cxx1112basic_stringIcSt11char_traitsIcESaIcEEEm+0x80)[0x12be1010]
[r233n16:30184] [10] lmp_kokkos_cuda_mpi(_ZN6Kokkos4Impl22SharedAllocationRecordINS_9CudaSpaceEvEC1ERKS2_RKNSt7__cxx1112basic_stringIcSt11char_traitsIcESaIcEEEmPFvPNS1_IvvEEE+0x4c)[0x12bdd35c]
[r233n16:30184] [11] lmp_kokkos_cuda_mpi(_ZN6Kokkos4ViewIA3_PdJNS_11LayoutRightENS_4CudaEvEEC2INSt7__cxx1112basic_stringIcSt11char_traitsIcESaIcEEEEERKT_NSt9enable_ifIXsrNS_4Impl13is_view_labelISD_EE5valueEKmE4typeEmmmmmmm+0x1c0)[0x10a166b0]
[r233n16:30184] [12] lmp_kokkos_cuda_mpi(_ZN6Kokkos8DualViewIA3_PdNS_11LayoutRightENS_4CudaEvE6resizeEmmmmmmmm+0xf8)[0x10a2b868]
[r233n16:30184] [13] lmp_kokkos_cuda_mpi(_ZN9LAMMPS_NS12MemoryKokkos11grow_kokkosIN6Kokkos8DualViewIA3_PdNS2_11LayoutRightENS2_4CudaEvEEEET_RS9_RPPNS9_10value_typeEiPKc+0x78)[0x10a2c7b8]
[r233n16:30184] [14] lmp_kokkos_cuda_mpi(_ZN9LAMMPS_NS19AtomVecAtomicKokkos4growEi+0x27c)[0x1262e9dc]
[r233n16:30184] [15] lmp_kokkos_cuda_mpi(_ZN9LAMMPS_NS19AtomVecAtomicKokkos20unpack_border_kokkosERKiS2_RKN6Kokkos8DualViewIPPdNS3_11LayoutRightENS3_4CudaEvEENS_14ExecutionSpaceE+0x8c)[0x12629a4c]
[r233n16:30184] [16] lmp_kokkos_cuda_mpi(_ZN9LAMMPS_NS10CommKokkos14borders_deviceIN6Kokkos4CudaEEEvv+0x5b0)[0x11258710]
[r233n16:30184] [17] lmp_kokkos_cuda_mpi(_ZN9LAMMPS_NS10CommKokkos7bordersEv+0x248)[0x1124a798]
[r233n16:30184] [18] lmp_kokkos_cuda_mpi(_ZN9LAMMPS_NS12VerletKokkos5setupEi+0x1d0)[0x12b3e0c0]
[r233n16:30184] [19] lmp_kokkos_cuda_mpi(_ZN9LAMMPS_NS3Run7commandEiPPc+0x14fc)[0x1098148c]
[r233n16:30184] [20] lmp_kokkos_cuda_mpi(_ZN9LAMMPS_NS5Input15execute_commandEv+0x2bf0)[0x1091c6f0]
[r233n16:30184] [21] lmp_kokkos_cuda_mpi(_ZN9LAMMPS_NS5Input4fileEv+0x2b0)[0x1091d3b0]
[r233n16:30184] [22] terminate called after throwing an instance of 'std::runtime_error'
  what():  Kokkos failed to allocate memory for label "atom:f".  Allocation using MemorySpace named "Cuda" failed with the following error:  Allocation of size 78.03 K failed, likely due to insufficient memory.  (The allocation mechanism was cudaMalloc().  The Cuda allocation returned the error code ""cudaErrorMemoryAllocation".)

Traceback functionality not available

[r229n16:104071] *** Process received signal ***
[r229n16:104071] Signal: Aborted (6)
[r229n16:104071] Signal code:  (-6)
[r229n16:104071] [ 0] linux-vdso64.so.1(__kernel_sigtramp_rt64+0x0)[0x2000000504d8]
[r229n16:104071] [ 1] /lib64/power9/libc.so.6(gsignal+0xd8)[0x20000bb63798]
[r229n16:104071] [ 2] /lib64/power9/libc.so.6(abort+0x164)[0x20000bb43bac]
[r229n16:104071] [ 3] /cineca/prod/opt/compilers/gnu/8.4.0/none/lib64/libstdc++.so.6(_ZN9__gnu_cxx27__verbose_terminate_handlerEv+0x158)[0x20000b32bd38]
[r229n16:104071] [ 4] /cineca/prod/opt/compilers/gnu/8.4.0/none/lib64/libstdc++.so.6(+0xb6c44)[0x20000b326c44]
[r229n16:104071] [ 5] lmp_kokkos_cuda_mpi(main+0x6c)[0x1086af4c]
[r233n16:30184] [23] /lib64/power9/libc.so.6(+0x241f8)[0x20000bb441f8]
[r233n16:30184] [24] /lib64/power9/libc.so.6(__libc_start_main+0xb4)[0x20000bb443e4]
[r233n16:30184] *** End of error message ***
/cineca/prod/opt/compilers/gnu/8.4.0/none/lib64/libstdc++.so.6(_ZSt9terminatev+0x20)[0x20000b326d00]
[r229n16:104071] [ 6] /cineca/prod/opt/compilers/gnu/8.4.0/none/lib64/libstdc++.so.6(__cxa_throw+0x7c)[0x20000b3271dc]
[r229n16:104071] [ 7] lmp_kokkos_cuda_mpi(_ZN6Kokkos4Impl23throw_runtime_exceptionERKNSt7__cxx1112basic_stringIcSt11char_traitsIcESaIcEEE+0xac)[0x12bd189c]
[r229n16:104071] [ 8] lmp_kokkos_cuda_mpi(_ZN6Kokkos4Impl41safe_throw_allocation_with_header_failureERKNSt7__cxx1112basic_stringIcSt11char_traitsIcESaIcEEES8_RKNS_12Experimental26RawMemoryAllocationFailureE+0x224)[0x12be1654]
[r229n16:104071] [ 9] lmp_kokkos_cuda_mpi(_ZN6Kokkos4Impl30checked_allocation_with_headerINS_9CudaSpaceEEEPNS0_22SharedAllocationHeaderERKT_RKNSt7__cxx1112basic_stringIcSt11char_traitsIcESaIcEEEm+0x80)[0x12be1010]
[r229n16:104071] [10] lmp_kokkos_cuda_mpi(_ZN6Kokkos4Impl22SharedAllocationRecordINS_9CudaSpaceEvEC1ERKS2_RKNSt7__cxx1112basic_stringIcSt11char_traitsIcESaIcEEEmPFvPNS1_IvvEEE+0x4c)[0x12bdd35c]
[r229n16:104071] [11] lmp_kokkos_cuda_mpi(_ZN6Kokkos4ViewIA3_PdJNS_11LayoutRightENS_4CudaEvEEC2INSt7__cxx1112basic_stringIcSt11char_traitsIcESaIcEEEEERKT_NSt9enable_ifIXsrNS_4Impl13is_view_labelISD_EE5valueEKmE4typeEmmmmmmm+0x1c0)[0x10a166b0]
[r229n16:104071] [12] lmp_kokkos_cuda_mpi(_ZN6Kokkos8DualViewIA3_PdNS_11LayoutRightENS_4CudaEvE6resizeEmmmmmmmm+0xf8)[0x10a2b868]
[r229n16:104071] [13] lmp_kokkos_cuda_mpi(_ZN9LAMMPS_NS12MemoryKokkos11grow_kokkosIN6Kokkos8DualViewIA3_PdNS2_11LayoutRightENS2_4CudaEvEEEET_RS9_RPPNS9_10value_typeEiPKc+0x78)[0x10a2c7b8]
[r229n16:104071] [14] lmp_kokkos_cuda_mpi(_ZN9LAMMPS_NS19AtomVecAtomicKokkos4growEi+0x27c)[0x1262e9dc]
[r229n16:104071] [15] lmp_kokkos_cuda_mpi(_ZN9LAMMPS_NS19AtomVecAtomicKokkos20unpack_border_kokkosERKiS2_RKN6Kokkos8DualViewIPPdNS3_11LayoutRightENS3_4CudaEvEENS_14ExecutionSpaceE+0x8c)[0x12629a4c]
[r229n16:104071] [16] lmp_kokkos_cuda_mpi(_ZN9LAMMPS_NS10CommKokkos14borders_deviceIN6Kokkos4CudaEEEvv+0x5b0)[0x11258710]
[r229n16:104071] [17] lmp_kokkos_cuda_mpi(_ZN9LAMMPS_NS10CommKokkos7bordersEv+0x248)[0x1124a798]
[r229n16:104071] [18] terminate called after throwing an instance of 'std::runtime_error'
  what():  Kokkos failed to allocate memory for label "atom:f".  Allocation using MemorySpace named "Cuda" failed with the following error:  Allocation of size 78.03 K failed, likely due to insufficient memory.  (The allocation mechanism was cudaMalloc().  The Cuda allocation returned the error code ""cudaErrorMemoryAllocation".)

Traceback functionality not available

[r233n16:30185] *** Process received signal ***
[r233n16:30185] Signal: Aborted (6)
[r233n16:30185] Signal code:  (-6)
[r233n16:30185] [ 0] linux-vdso64.so.1(__kernel_sigtramp_rt64+0x0)[0x2000000504d8]
[r233n16:30185] [ 1] /lib64/power9/libc.so.6(gsignal+0xd8)[0x20000bb63798]
[r233n16:30185] [ 2] /lib64/power9/libc.so.6(abort+0x164)[0x20000bb43bac]
[r233n16:30185] [ 3] /cineca/prod/opt/compilers/gnu/8.4.0/none/lib64/libstdc++.so.6(_ZN9__gnu_cxx27__verbose_terminate_handlerEv+0x158)[0x20000b32bd38]
[r233n16:30185] [ 4] /cineca/prod/opt/compilers/gnu/8.4.0/none/lib64/libstdc++.so.6(+0xb6c44)[0x20000b326c44]
[r233n16:30185] [ 5] /cineca/prod/opt/compilers/gnu/8.4.0/none/lib64/libstdc++.so.6(_ZSt9terminatev+0x20)[0x20000b326d00]
[r233n16:30185] [ 6] /cineca/prod/opt/compilers/gnu/8.4.0/none/lib64/libstdc++.so.6(__cxa_throw+0x7c)[0x20000b3271dc]
[r233n16:30185] [ 7] lmp_kokkos_cuda_mpi(_ZN9LAMMPS_NS12VerletKokkos5setupEi+0x1d0)[0x12b3e0c0]
[r229n16:104071] [19] lmp_kokkos_cuda_mpi(_ZN9LAMMPS_NS3Run7commandEiPPc+0x14fc)[0x1098148c]
[r229n16:104071] [20] lmp_kokkos_cuda_mpi(_ZN6Kokkos4Impl23throw_runtime_exceptionERKNSt7__cxx1112basic_stringIcSt11char_traitsIcESaIcEEE+0xac)[0x12bd189c]
[r233n16:30185] [ 8] lmp_kokkos_cuda_mpi(_ZN9LAMMPS_NS5Input15execute_commandEv+0x2bf0)[0x1091c6f0]
[r229n16:104071] [21] lmp_kokkos_cuda_mpi(_ZN6Kokkos4Impl41safe_throw_allocation_with_header_failureERKNSt7__cxx1112basic_stringIcSt11char_traitsIcESaIcEEES8_RKNS_12Experimental26RawMemoryAllocationFailureE+0x224)[0x12be1654]
[r233n16:30185] [ 9] lmp_kokkos_cuda_mpi(_ZN9LAMMPS_NS5Input4fileEv+0x2b0)[0x1091d3b0]
[r229n16:104071] [22] lmp_kokkos_cuda_mpi(main+0x6c)[0x1086af4c]
[r229n16:104071] [23] /lib64/power9/libc.so.6(+0x241f8)[0x20000bb441f8]
[r229n16:104071] [24] /lib64/power9/libc.so.6(__libc_start_main+0xb4)[0x20000bb443e4]
[r229n16:104071] *** End of error message ***
lmp_kokkos_cuda_mpi(_ZN6Kokkos4Impl30checked_allocation_with_headerINS_9CudaSpaceEEEPNS0_22SharedAllocationHeaderERKT_RKNSt7__cxx1112basic_stringIcSt11char_traitsIcESaIcEEEm+0x80)[0x12be1010]
[r233n16:30185] [10] lmp_kokkos_cuda_mpi(_ZN6Kokkos4Impl22SharedAllocationRecordINS_9CudaSpaceEvEC1ERKS2_RKNSt7__cxx1112basic_stringIcSt11char_traitsIcESaIcEEEmPFvPNS1_IvvEEE+0x4c)[0x12bdd35c]
[r233n16:30185] [11] lmp_kokkos_cuda_mpi(_ZN6Kokkos4ViewIA3_PdJNS_11LayoutRightENS_4CudaEvEEC2INSt7__cxx1112basic_stringIcSt11char_traitsIcESaIcEEEEERKT_NSt9enable_ifIXsrNS_4Impl13is_view_labelISD_EE5valueEKmE4typeEmmmmmmm+0x1c0)[0x10a166b0]
[r233n16:30185] [12] lmp_kokkos_cuda_mpi(_ZN6Kokkos8DualViewIA3_PdNS_11LayoutRightENS_4CudaEvE6resizeEmmmmmmmm+0xf8)[0x10a2b868]
[r233n16:30185] [13] lmp_kokkos_cuda_mpi(_ZN9LAMMPS_NS12MemoryKokkos11grow_kokkosIN6Kokkos8DualViewIA3_PdNS2_11LayoutRightENS2_4CudaEvEEEET_RS9_RPPNS9_10value_typeEiPKc+0x78)[0x10a2c7b8]
[r233n16:30185] [14] lmp_kokkos_cuda_mpi(_ZN9LAMMPS_NS19AtomVecAtomicKokkos4growEi+0x27c)[0x1262e9dc]
[r233n16:30185] [15] lmp_kokkos_cuda_mpi(_ZN9LAMMPS_NS19AtomVecAtomicKokkos20unpack_border_kokkosERKiS2_RKN6Kokkos8DualViewIPPdNS3_11LayoutRightENS3_4CudaEvEENS_14ExecutionSpaceE+0x8c)[0x12629a4c]
[r233n16:30185] [16] lmp_kokkos_cuda_mpi(_ZN9LAMMPS_NS10CommKokkos14borders_deviceIN6Kokkos4CudaEEEvv+0x5b0)[0x11258710]
[r233n16:30185] [17] lmp_kokkos_cuda_mpi(_ZN9LAMMPS_NS10CommKokkos7bordersEv+0x248)[0x1124a798]
[r233n16:30185] [18] lmp_kokkos_cuda_mpi(_ZN9LAMMPS_NS12VerletKokkos5setupEi+0x1d0)[0x12b3e0c0]
[r233n16:30185] [19] lmp_kokkos_cuda_mpi(_ZN9LAMMPS_NS3Run7commandEiPPc+0x14fc)[0x1098148c]
[r233n16:30185] [20] lmp_kokkos_cuda_mpi(_ZN9LAMMPS_NS5Input15execute_commandEv+0x2bf0)[0x1091c6f0]
[r233n16:30185] [21] lmp_kokkos_cuda_mpi(_ZN9LAMMPS_NS5Input4fileEv+0x2b0)[0x1091d3b0]
[r233n16:30185] [22] lmp_kokkos_cuda_mpi(main+0x6c)[0x1086af4c]
[r233n16:30185] [23] /lib64/power9/libc.so.6(+0x241f8)[0x20000bb441f8]
[r233n16:30185] [24] /lib64/power9/libc.so.6(__libc_start_main+0xb4)[0x20000bb443e4]
[r233n16:30185] *** End of error message ***
terminate called after throwing an instance of 'std::runtime_error'
  what():  Kokkos failed to allocate memory for label "atom:f".  Allocation using MemorySpace named "Cuda" failed with the following error:  Allocation of size 78.03 K failed, likely due to insufficient memory.  (The allocation mechanism was cudaMalloc().  The Cuda allocation returned the error code ""cudaErrorMemoryAllocation".)

Traceback functionality not available

[r229n16:104066] *** Process received signal ***
[r229n16:104066] Signal: Aborted (6)
[r229n16:104066] Signal code:  (-6)
[r229n16:104066] [ 0] linux-vdso64.so.1(__kernel_sigtramp_rt64+0x0)[0x2000000504d8]
[r229n16:104066] [ 1] /lib64/power9/libc.so.6(gsignal+0xd8)[0x20000bb63798]
[r229n16:104066] [ 2] /lib64/power9/libc.so.6(abort+0x164)[0x20000bb43bac]
[r229n16:104066] [ 3] /cineca/prod/opt/compilers/gnu/8.4.0/none/lib64/libstdc++.so.6(_ZN9__gnu_cxx27__verbose_terminate_handlerEv+0x158)[0x20000b32bd38]
[r229n16:104066] [ 4] /cineca/prod/opt/compilers/gnu/8.4.0/none/lib64/libstdc++.so.6(+0xb6c44)[0x20000b326c44]
[r229n16:104066] [ 5] /cineca/prod/opt/compilers/gnu/8.4.0/none/lib64/libstdc++.so.6(_ZSt9terminatev+0x20)[0x20000b326d00]
[r229n16:104066] [ 6] /cineca/prod/opt/compilers/gnu/8.4.0/none/lib64/libstdc++.so.6(__cxa_throw+0x7c)[0x20000b3271dc]
[r229n16:104066] [ 7] lmp_kokkos_cuda_mpi(_ZN6Kokkos4Impl23throw_runtime_exceptionERKNSt7__cxx1112basic_stringIcSt11char_traitsIcESaIcEEE+0xac)[0x12bd189c]
[r229n16:104066] [ 8] lmp_kokkos_cuda_mpi(_ZN6Kokkos4Impl41safe_throw_allocation_with_header_failureERKNSt7__cxx1112basic_stringIcSt11char_traitsIcESaIcEEES8_RKNS_12Experimental26RawMemoryAllocationFailureE+0x224)[0x12be1654]
[r229n16:104066] [ 9] lmp_kokkos_cuda_mpi(_ZN6Kokkos4Impl30checked_allocation_with_headerINS_9CudaSpaceEEEPNS0_22SharedAllocationHeaderERKT_RKNSt7__cxx1112basic_stringIcSt11char_traitsIcESaIcEEEm+0x80)[0x12be1010]
[r229n16:104066] [10] terminate called after throwing an instance of 'std::runtime_error'
  what():  Kokkos failed to allocate memory for label "atom:f".  Allocation using MemorySpace named "Cuda" failed with the following error:  Allocation of size 78.03 K failed, likely due to insufficient memory.  (The allocation mechanism was cudaMalloc().  The Cuda allocation returned the error code ""cudaErrorMemoryAllocation".)

Traceback functionality not available

[r233n16:30203] *** Process received signal ***
[r233n16:30203] Signal: Aborted (6)
[r233n16:30203] Signal code:  (-6)
[r233n16:30203] [ 0] linux-vdso64.so.1(__kernel_sigtramp_rt64+0x0)[0x2000000504d8]
[r233n16:30203] [ 1] /lib64/power9/libc.so.6(gsignal+0xd8)[0x20000bb63798]
[r233n16:30203] [ 2] /lib64/power9/libc.so.6(abort+0x164)[0x20000bb43bac]
[r233n16:30203] [ 3] /cineca/prod/opt/compilers/gnu/8.4.0/none/lib64/libstdc++.so.6(_ZN9__gnu_cxx27__verbose_terminate_handlerEv+0x158)[0x20000b32bd38]
[r233n16:30203] [ 4] lmp_kokkos_cuda_mpi(_ZN6Kokkos4Impl22SharedAllocationRecordINS_9CudaSpaceEvEC1ERKS2_RKNSt7__cxx1112basic_stringIcSt11char_traitsIcESaIcEEEmPFvPNS1_IvvEEE+0x4c)[0x12bdd35c]
[r229n16:104066] [11] /cineca/prod/opt/compilers/gnu/8.4.0/none/lib64/libstdc++.so.6(+0xb6c44)[0x20000b326c44]
[r233n16:30203] [ 5] /cineca/prod/opt/compilers/gnu/8.4.0/none/lib64/libstdc++.so.6(_ZSt9terminatev+0x20)[0x20000b326d00]
[r233n16:30203] [ 6] /cineca/prod/opt/compilers/gnu/8.4.0/none/lib64/libstdc++.so.6(__cxa_throw+0x7c)[0x20000b3271dc]
[r233n16:30203] [ 7] lmp_kokkos_cuda_mpi(_ZN6Kokkos4ViewIA3_PdJNS_11LayoutRightENS_4CudaEvEEC2INSt7__cxx1112basic_stringIcSt11char_traitsIcESaIcEEEEERKT_NSt9enable_ifIXsrNS_4Impl13is_view_labelISD_EE5valueEKmE4typeEmmmmmmm+0x1c0)[0x10a166b0]
[r229n16:104066] [12] lmp_kokkos_cuda_mpi(_ZN6Kokkos4Impl23throw_runtime_exceptionERKNSt7__cxx1112basic_stringIcSt11char_traitsIcESaIcEEE+0xac)[0x12bd189c]
[r233n16:30203] [ 8] lmp_kokkos_cuda_mpi(_ZN6Kokkos8DualViewIA3_PdNS_11LayoutRightENS_4CudaEvE6resizeEmmmmmmmm+0xf8)[0x10a2b868]
[r229n16:104066] [13] lmp_kokkos_cuda_mpi(_ZN9LAMMPS_NS12MemoryKokkos11grow_kokkosIN6Kokkos8DualViewIA3_PdNS2_11LayoutRightENS2_4CudaEvEEEET_RS9_RPPNS9_10value_typeEiPKc+0x78)[0x10a2c7b8]
[r229n16:104066] [14] lmp_kokkos_cuda_mpi(_ZN6Kokkos4Impl41safe_throw_allocation_with_header_failureERKNSt7__cxx1112basic_stringIcSt11char_traitsIcESaIcEEES8_RKNS_12Experimental26RawMemoryAllocationFailureE+0x224)[0x12be1654]
[r233n16:30203] [ 9] lmp_kokkos_cuda_mpi(_ZN9LAMMPS_NS19AtomVecAtomicKokkos4growEi+0x27c)[0x1262e9dc]
[r229n16:104066] [15] lmp_kokkos_cuda_mpi(_ZN6Kokkos4Impl30checked_allocation_with_headerINS_9CudaSpaceEEEPNS0_22SharedAllocationHeaderERKT_RKNSt7__cxx1112basic_stringIcSt11char_traitsIcESaIcEEEm+0x80)[0x12be1010]
[r233n16:30203] [10] lmp_kokkos_cuda_mpi(_ZN9LAMMPS_NS19AtomVecAtomicKokkos20unpack_border_kokkosERKiS2_RKN6Kokkos8DualViewIPPdNS3_11LayoutRightENS3_4CudaEvEENS_14ExecutionSpaceE+0x8c)[0x12629a4c]
[r229n16:104066] [16] lmp_kokkos_cuda_mpi(_ZN6Kokkos4Impl22SharedAllocationRecordINS_9CudaSpaceEvEC1ERKS2_RKNSt7__cxx1112basic_stringIcSt11char_traitsIcESaIcEEEmPFvPNS1_IvvEEE+0x4c)[0x12bdd35c]
[r233n16:30203] [11] lmp_kokkos_cuda_mpi(_ZN9LAMMPS_NS10CommKokkos14borders_deviceIN6Kokkos4CudaEEEvv+0x5b0)[0x11258710]
[r229n16:104066] [17] lmp_kokkos_cuda_mpi(_ZN6Kokkos4ViewIA3_PdJNS_11LayoutRightENS_4CudaEvEEC2INSt7__cxx1112basic_stringIcSt11char_traitsIcESaIcEEEEERKT_NSt9enable_ifIXsrNS_4Impl13is_view_labelISD_EE5valueEKmE4typeEmmmmmmm+0x1c0)[0x10a166b0]
[r233n16:30203] [12] lmp_kokkos_cuda_mpi(_ZN9LAMMPS_NS10CommKokkos7bordersEv+0x248)[0x1124a798]
[r229n16:104066] [18] lmp_kokkos_cuda_mpi(_ZN6Kokkos8DualViewIA3_PdNS_11LayoutRightENS_4CudaEvE6resizeEmmmmmmmm+0xf8)[0x10a2b868]
[r233n16:30203] [13] lmp_kokkos_cuda_mpi(_ZN9LAMMPS_NS12MemoryKokkos11grow_kokkosIN6Kokkos8DualViewIA3_PdNS2_11LayoutRightENS2_4CudaEvEEEET_RS9_RPPNS9_10value_typeEiPKc+0x78)[0x10a2c7b8]
[r233n16:30203] [14] lmp_kokkos_cuda_mpi(_ZN9LAMMPS_NS12VerletKokkos5setupEi+0x1d0)[0x12b3e0c0]
[r229n16:104066] [19] lmp_kokkos_cuda_mpi(_ZN9LAMMPS_NS3Run7commandEiPPc+0x14fc)[0x1098148c]
[r229n16:104066] [20] lmp_kokkos_cuda_mpi(_ZN9LAMMPS_NS19AtomVecAtomicKokkos4growEi+0x27c)[0x1262e9dc]
[r233n16:30203] [15] lmp_kokkos_cuda_mpi(_ZN9LAMMPS_NS5Input15execute_commandEv+0x2bf0)[0x1091c6f0]
[r229n16:104066] [21] lmp_kokkos_cuda_mpi(_ZN9LAMMPS_NS19AtomVecAtomicKokkos20unpack_border_kokkosERKiS2_RKN6Kokkos8DualViewIPPdNS3_11LayoutRightENS3_4CudaEvEENS_14ExecutionSpaceE+0x8c)[0x12629a4c]
[r233n16:30203] [16] lmp_kokkos_cuda_mpi(_ZN9LAMMPS_NS5Input4fileEv+0x2b0)[0x1091d3b0]
[r229n16:104066] [22] lmp_kokkos_cuda_mpi(main+0x6c)[0x1086af4c]
[r229n16:104066] [23] lmp_kokkos_cuda_mpi(_ZN9LAMMPS_NS10CommKokkos14borders_deviceIN6Kokkos4CudaEEEvv+0x5b0)[0x11258710]
[r233n16:30203] [17] /lib64/power9/libc.so.6(+0x241f8)[0x20000bb441f8]
[r229n16:104066] [24] /lib64/power9/libc.so.6(__libc_start_main+0xb4)[0x20000bb443e4]
[r229n16:104066] *** End of error message ***
lmp_kokkos_cuda_mpi(_ZN9LAMMPS_NS10CommKokkos7bordersEv+0x248)[0x1124a798]
[r233n16:30203] [18] lmp_kokkos_cuda_mpi(_ZN9LAMMPS_NS12VerletKokkos5setupEi+0x1d0)[0x12b3e0c0]
[r233n16:30203] [19] lmp_kokkos_cuda_mpi(_ZN9LAMMPS_NS3Run7commandEiPPc+0x14fc)[0x1098148c]
[r233n16:30203] [20] lmp_kokkos_cuda_mpi(_ZN9LAMMPS_NS5Input15execute_commandEv+0x2bf0)[0x1091c6f0]
[r233n16:30203] [21] lmp_kokkos_cuda_mpi(_ZN9LAMMPS_NS5Input4fileEv+0x2b0)[0x1091d3b0]
[r233n16:30203] [22] lmp_kokkos_cuda_mpi(main+0x6c)[0x1086af4c]
[r233n16:30203] [23] /lib64/power9/libc.so.6(+0x241f8)[0x20000bb441f8]
[r233n16:30203] [24] /lib64/power9/libc.so.6(__libc_start_main+0xb4)[0x20000bb443e4]
[r233n16:30203] *** End of error message ***
terminate called after throwing an instance of 'std::runtime_error'
  what():  Kokkos failed to allocate memory for label "atom:f".  Allocation using MemorySpace named "Cuda" failed with the following error:  Allocation of size 78.03 K failed, likely due to insufficient memory.  (The allocation mechanism was cudaMalloc().  The Cuda allocation returned the error code ""cudaErrorMemoryAllocation".)

Traceback functionality not available

[r233n16:30204] *** Process received signal ***
[r233n16:30204] Signal: Aborted (6)
[r233n16:30204] Signal code:  (-6)
[r233n16:30204] [ 0] linux-vdso64.so.1(__kernel_sigtramp_rt64+0x0)[0x2000000504d8]
[r233n16:30204] [ 1] /lib64/power9/libc.so.6(gsignal+0xd8)[0x20000bb63798]
[r233n16:30204] [ 2] /lib64/power9/libc.so.6(abort+0x164)[0x20000bb43bac]
[r233n16:30204] [ 3] /cineca/prod/opt/compilers/gnu/8.4.0/none/lib64/libstdc++.so.6(_ZN9__gnu_cxx27__verbose_terminate_handlerEv+0x158)[0x20000b32bd38]
[r233n16:30204] [ 4] /cineca/prod/opt/compilers/gnu/8.4.0/none/lib64/libstdc++.so.6(+0xb6c44)[0x20000b326c44]
[r233n16:30204] [ 5] /cineca/prod/opt/compilers/gnu/8.4.0/none/lib64/libstdc++.so.6(_ZSt9terminatev+0x20)[0x20000b326d00]
[r233n16:30204] [ 6] /cineca/prod/opt/compilers/gnu/8.4.0/none/lib64/libstdc++.so.6(__cxa_throw+0x7c)[0x20000b3271dc]
[r233n16:30204] [ 7] lmp_kokkos_cuda_mpi(_ZN6Kokkos4Impl23throw_runtime_exceptionERKNSt7__cxx1112basic_stringIcSt11char_traitsIcESaIcEEE+0xac)[0x12bd189c]
[r233n16:30204] [ 8] lmp_kokkos_cuda_mpi(_ZN6Kokkos4Impl41safe_throw_allocation_with_header_failureERKNSt7__cxx1112basic_stringIcSt11char_traitsIcESaIcEEES8_RKNS_12Experimental26RawMemoryAllocationFailureE+0x224)[0x12be1654]
[r233n16:30204] [ 9] lmp_kokkos_cuda_mpi(_ZN6Kokkos4Impl30checked_allocation_with_headerINS_9CudaSpaceEEEPNS0_22SharedAllocationHeaderERKT_RKNSt7__cxx1112basic_stringIcSt11char_traitsIcESaIcEEEm+0x80)[0x12be1010]
[r233n16:30204] [10] terminate called after throwing an instance of 'std::runtime_error'
  what():  Kokkos failed to allocate memory for label "atom:f".  Allocation using MemorySpace named "Cuda" failed with the following error:  Allocation of size 78.03 K failed, likely due to insufficient memory.  (The allocation mechanism was cudaMalloc().  The Cuda allocation returned the error code ""cudaErrorMemoryAllocation".)

Traceback functionality not available

[r229n16:104070] *** Process received signal ***
[r229n16:104070] Signal: Aborted (6)
[r229n16:104070] Signal code:  (-6)
[r229n16:104070] [ 0] linux-vdso64.so.1(__kernel_sigtramp_rt64+0x0)[0x2000000504d8]
[r229n16:104070] [ 1] /lib64/power9/libc.so.6(gsignal+0xd8)[0x20000bb63798]
[r229n16:104070] [ 2] /lib64/power9/libc.so.6(abort+0x164)[0x20000bb43bac]
[r229n16:104070] [ 3] /cineca/prod/opt/compilers/gnu/8.4.0/none/lib64/libstdc++.so.6(_ZN9__gnu_cxx27__verbose_terminate_handlerEv+0x158)[0x20000b32bd38]
[r229n16:104070] [ 4] /cineca/prod/opt/compilers/gnu/8.4.0/none/lib64/libstdc++.so.6(+0xb6c44)[0x20000b326c44]
[r229n16:104070] [ 5] /cineca/prod/opt/compilers/gnu/8.4.0/none/lib64/libstdc++.so.6(_ZSt9terminatev+0x20)[0x20000b326d00]
[r229n16:104070] [ 6] /cineca/prod/opt/compilers/gnu/8.4.0/none/lib64/libstdc++.so.6(__cxa_throw+0x7c)[0x20000b3271dc]
[r229n16:104070] [ 7] lmp_kokkos_cuda_mpi(_ZN6Kokkos4Impl22SharedAllocationRecordINS_9CudaSpaceEvEC1ERKS2_RKNSt7__cxx1112basic_stringIcSt11char_traitsIcESaIcEEEmPFvPNS1_IvvEEE+0x4c)[0x12bdd35c]
[r233n16:30204] [11] lmp_kokkos_cuda_mpi(_ZN6Kokkos4ViewIA3_PdJNS_11LayoutRightENS_4CudaEvEEC2INSt7__cxx1112basic_stringIcSt11char_traitsIcESaIcEEEEERKT_NSt9enable_ifIXsrNS_4Impl13is_view_labelISD_EE5valueEKmE4typeEmmmmmmm+0x1c0)[0x10a166b0]
[r233n16:30204] [12] lmp_kokkos_cuda_mpi(_ZN6Kokkos4Impl23throw_runtime_exceptionERKNSt7__cxx1112basic_stringIcSt11char_traitsIcESaIcEEE+0xac)[0x12bd189c]
[r229n16:104070] [ 8] lmp_kokkos_cuda_mpi(_ZN6Kokkos8DualViewIA3_PdNS_11LayoutRightENS_4CudaEvE6resizeEmmmmmmmm+0xf8)[0x10a2b868]
[r233n16:30204] [13] lmp_kokkos_cuda_mpi(_ZN6Kokkos4Impl41safe_throw_allocation_with_header_failureERKNSt7__cxx1112basic_stringIcSt11char_traitsIcESaIcEEES8_RKNS_12Experimental26RawMemoryAllocationFailureE+0x224)[0x12be1654]
[r229n16:104070] [ 9] lmp_kokkos_cuda_mpi(_ZN9LAMMPS_NS12MemoryKokkos11grow_kokkosIN6Kokkos8DualViewIA3_PdNS2_11LayoutRightENS2_4CudaEvEEEET_RS9_RPPNS9_10value_typeEiPKc+0x78)[0x10a2c7b8]
[r233n16:30204] [14] lmp_kokkos_cuda_mpi(_ZN6Kokkos4Impl30checked_allocation_with_headerINS_9CudaSpaceEEEPNS0_22SharedAllocationHeaderERKT_RKNSt7__cxx1112basic_stringIcSt11char_traitsIcESaIcEEEm+0x80)[0x12be1010]
[r229n16:104070] [10] lmp_kokkos_cuda_mpi(_ZN9LAMMPS_NS19AtomVecAtomicKokkos4growEi+0x27c)[0x1262e9dc]
[r233n16:30204] [15] lmp_kokkos_cuda_mpi(_ZN6Kokkos4Impl22SharedAllocationRecordINS_9CudaSpaceEvEC1ERKS2_RKNSt7__cxx1112basic_stringIcSt11char_traitsIcESaIcEEEmPFvPNS1_IvvEEE+0x4c)[0x12bdd35c]
[r229n16:104070] [11] lmp_kokkos_cuda_mpi(_ZN9LAMMPS_NS19AtomVecAtomicKokkos20unpack_border_kokkosERKiS2_RKN6Kokkos8DualViewIPPdNS3_11LayoutRightENS3_4CudaEvEENS_14ExecutionSpaceE+0x8c)[0x12629a4c]
[r233n16:30204] [16] lmp_kokkos_cuda_mpi(_ZN6Kokkos4ViewIA3_PdJNS_11LayoutRightENS_4CudaEvEEC2INSt7__cxx1112basic_stringIcSt11char_traitsIcESaIcEEEEERKT_NSt9enable_ifIXsrNS_4Impl13is_view_labelISD_EE5valueEKmE4typeEmmmmmmm+0x1c0)[0x10a166b0]
[r229n16:104070] [12] lmp_kokkos_cuda_mpi(_ZN9LAMMPS_NS10CommKokkos14borders_deviceIN6Kokkos4CudaEEEvv+0x5b0)[0x11258710]
[r233n16:30204] [17] lmp_kokkos_cuda_mpi(_ZN6Kokkos8DualViewIA3_PdNS_11LayoutRightENS_4CudaEvE6resizeEmmmmmmmm+0xf8)[0x10a2b868]
[r229n16:104070] [13] lmp_kokkos_cuda_mpi(_ZN9LAMMPS_NS10CommKokkos7bordersEv+0x248)[0x1124a798]
[r233n16:30204] [18] lmp_kokkos_cuda_mpi(_ZN9LAMMPS_NS12MemoryKokkos11grow_kokkosIN6Kokkos8DualViewIA3_PdNS2_11LayoutRightENS2_4CudaEvEEEET_RS9_RPPNS9_10value_typeEiPKc+0x78)[0x10a2c7b8]
[r229n16:104070] [14] lmp_kokkos_cuda_mpi(_ZN9LAMMPS_NS12VerletKokkos5setupEi+0x1d0)[0x12b3e0c0]
[r233n16:30204] [19] lmp_kokkos_cuda_mpi(_ZN9LAMMPS_NS19AtomVecAtomicKokkos4growEi+0x27c)[0x1262e9dc]
[r229n16:104070] [15] lmp_kokkos_cuda_mpi(_ZN9LAMMPS_NS3Run7commandEiPPc+0x14fc)[0x1098148c]
[r233n16:30204] [20] lmp_kokkos_cuda_mpi(_ZN9LAMMPS_NS19AtomVecAtomicKokkos20unpack_border_kokkosERKiS2_RKN6Kokkos8DualViewIPPdNS3_11LayoutRightENS3_4CudaEvEENS_14ExecutionSpaceE+0x8c)[0x12629a4c]
[r229n16:104070] [16] lmp_kokkos_cuda_mpi(_ZN9LAMMPS_NS5Input15execute_commandEv+0x2bf0)[0x1091c6f0]
[r233n16:30204] [21] lmp_kokkos_cuda_mpi(_ZN9LAMMPS_NS5Input4fileEv+0x2b0)[0x1091d3b0]
[r233n16:30204] [22] lmp_kokkos_cuda_mpi(_ZN9LAMMPS_NS10CommKokkos14borders_deviceIN6Kokkos4CudaEEEvv+0x5b0)[0x11258710]
[r229n16:104070] [17] lmp_kokkos_cuda_mpi(main+0x6c)[0x1086af4c]
[r233n16:30204] [23] /lib64/power9/libc.so.6(+0x241f8)[0x20000bb441f8]
[r233n16:30204] [24] /lib64/power9/libc.so.6(__libc_start_main+0xb4)[0x20000bb443e4]
[r233n16:30204] *** End of error message ***
lmp_kokkos_cuda_mpi(_ZN9LAMMPS_NS10CommKokkos7bordersEv+0x248)[0x1124a798]
[r229n16:104070] [18] lmp_kokkos_cuda_mpi(_ZN9LAMMPS_NS12VerletKokkos5setupEi+0x1d0)[0x12b3e0c0]
[r229n16:104070] [19] lmp_kokkos_cuda_mpi(_ZN9LAMMPS_NS3Run7commandEiPPc+0x14fc)[0x1098148c]
[r229n16:104070] [20] lmp_kokkos_cuda_mpi(_ZN9LAMMPS_NS5Input15execute_commandEv+0x2bf0)[0x1091c6f0]
[r229n16:104070] [21] lmp_kokkos_cuda_mpi(_ZN9LAMMPS_NS5Input4fileEv+0x2b0)[0x1091d3b0]
[r229n16:104070] [22] lmp_kokkos_cuda_mpi(main+0x6c)[0x1086af4c]
[r229n16:104070] [23] /lib64/power9/libc.so.6(+0x241f8)[0x20000bb441f8]
[r229n16:104070] [24] /lib64/power9/libc.so.6(__libc_start_main+0xb4)[0x20000bb443e4]
[r229n16:104070] *** End of error message ***
terminate called after throwing an instance of 'std::runtime_error'
  what():  Kokkos failed to allocate memory for label "atom:f".  Allocation using MemorySpace named "Cuda" failed with the following error:  Allocation of size 78.03 K failed, likely due to insufficient memory.  (The allocation mechanism was cudaMalloc().  The Cuda allocation returned the error code ""cudaErrorMemoryAllocation".)

Traceback functionality not available

[r233n16:30201] *** Process received signal ***
[r233n16:30201] Signal: Aborted (6)
[r233n16:30201] Signal code:  (-6)
[r233n16:30201] [ 0] linux-vdso64.so.1(__kernel_sigtramp_rt64+0x0)[0x2000000504d8]
[r233n16:30201] [ 1] /lib64/power9/libc.so.6(gsignal+0xd8)[0x20000bb63798]
[r233n16:30201] [ 2] /lib64/power9/libc.so.6(abort+0x164)[0x20000bb43bac]
[r233n16:30201] [ 3] /cineca/prod/opt/compilers/gnu/8.4.0/none/lib64/libstdc++.so.6(_ZN9__gnu_cxx27__verbose_terminate_handlerEv+0x158)[0x20000b32bd38]
[r233n16:30201] [ 4] /cineca/prod/opt/compilers/gnu/8.4.0/none/lib64/libstdc++.so.6(+0xb6c44)[0x20000b326c44]
[r233n16:30201] [ 5] /cineca/prod/opt/compilers/gnu/8.4.0/none/lib64/libstdc++.so.6(_ZSt9terminatev+0x20)[0x20000b326d00]
[r233n16:30201] [ 6] /cineca/prod/opt/compilers/gnu/8.4.0/none/lib64/libstdc++.so.6(__cxa_throw+0x7c)[0x20000b3271dc]
[r233n16:30201] [ 7] lmp_kokkos_cuda_mpi(_ZN6Kokkos4Impl23throw_runtime_exceptionERKNSt7__cxx1112basic_stringIcSt11char_traitsIcESaIcEEE+0xac)[0x12bd189c]
[r233n16:30201] [ 8] lmp_kokkos_cuda_mpi(_ZN6Kokkos4Impl41safe_throw_allocation_with_header_failureERKNSt7__cxx1112basic_stringIcSt11char_traitsIcESaIcEEES8_RKNS_12Experimental26RawMemoryAllocationFailureE+0x224)[0x12be1654]
[r233n16:30201] [ 9] lmp_kokkos_cuda_mpi(_ZN6Kokkos4Impl30checked_allocation_with_headerINS_9CudaSpaceEEEPNS0_22SharedAllocationHeaderERKT_RKNSt7__cxx1112basic_stringIcSt11char_traitsIcESaIcEEEm+0x80)[0x12be1010]
[r233n16:30201] [10] lmp_kokkos_cuda_mpi(_ZN6Kokkos4Impl22SharedAllocationRecordINS_9CudaSpaceEvEC1ERKS2_RKNSt7__cxx1112basic_stringIcSt11char_traitsIcESaIcEEEmPFvPNS1_IvvEEE+0x4c)[0x12bdd35c]
[r233n16:30201] [11] lmp_kokkos_cuda_mpi(_ZN6Kokkos4ViewIA3_PdJNS_11LayoutRightENS_4CudaEvEEC2INSt7__cxx1112basic_stringIcSt11char_traitsIcESaIcEEEEERKT_NSt9enable_ifIXsrNS_4Impl13is_view_labelISD_EE5valueEKmE4typeEmmmmmmm+0x1c0)[0x10a166b0]
[r233n16:30201] [12] lmp_kokkos_cuda_mpi(_ZN6Kokkos8DualViewIA3_PdNS_11LayoutRightENS_4CudaEvE6resizeEmmmmmmmm+0xf8)[0x10a2b868]
[r233n16:30201] [13] lmp_kokkos_cuda_mpi(_ZN9LAMMPS_NS12MemoryKokkos11grow_kokkosIN6Kokkos8DualViewIA3_PdNS2_11LayoutRightENS2_4CudaEvEEEET_RS9_RPPNS9_10value_typeEiPKc+0x78)[0x10a2c7b8]
[r233n16:30201] [14] lmp_kokkos_cuda_mpi(_ZN9LAMMPS_NS19AtomVecAtomicKokkos4growEi+0x27c)[0x1262e9dc]
[r233n16:30201] [15] lmp_kokkos_cuda_mpi(_ZN9LAMMPS_NS19AtomVecAtomicKokkos20unpack_border_kokkosERKiS2_RKN6Kokkos8DualViewIPPdNS3_11LayoutRightENS3_4CudaEvEENS_14ExecutionSpaceE+0x8c)[0x12629a4c]
[r233n16:30201] [16] lmp_kokkos_cuda_mpi(_ZN9LAMMPS_NS10CommKokkos14borders_deviceIN6Kokkos4CudaEEEvv+0x5b0)[0x11258710]
[r233n16:30201] [17] lmp_kokkos_cuda_mpi(_ZN9LAMMPS_NS10CommKokkos7bordersEv+0x248)[0x1124a798]
[r233n16:30201] [18] lmp_kokkos_cuda_mpi(_ZN9LAMMPS_NS12VerletKokkos5setupEi+0x1d0)[0x12b3e0c0]
[r233n16:30201] [19] lmp_kokkos_cuda_mpi(_ZN9LAMMPS_NS3Run7commandEiPPc+0x14fc)[0x1098148c]
[r233n16:30201] [20] lmp_kokkos_cuda_mpi(_ZN9LAMMPS_NS5Input15execute_commandEv+0x2bf0)[0x1091c6f0]
[r233n16:30201] [21] lmp_kokkos_cuda_mpi(_ZN9LAMMPS_NS5Input4fileEv+0x2b0)[0x1091d3b0]
[r233n16:30201] [22] lmp_kokkos_cuda_mpi(main+0x6c)[0x1086af4c]
[r233n16:30201] [23] /lib64/power9/libc.so.6(+0x241f8)[0x20000bb441f8]
[r233n16:30201] [24] /lib64/power9/libc.so.6(__libc_start_main+0xb4)[0x20000bb443e4]
[r233n16:30201] *** End of error message ***
terminate called after throwing an instance of 'std::runtime_error'
  what():  Kokkos failed to allocate memory for label "atom:f".  Allocation using MemorySpace named "Cuda" failed with the following error:  Allocation of size 78.03 K failed, likely due to insufficient memory.  (The allocation mechanism was cudaMalloc().  The Cuda allocation returned the error code ""cudaErrorMemoryAllocation".)

Traceback functionality not available

[r233n16:30202] *** Process received signal ***
[r233n16:30202] Signal: Aborted (6)
[r233n16:30202] Signal code:  (-6)
[r233n16:30202] [ 0] linux-vdso64.so.1(__kernel_sigtramp_rt64+0x0)[0x2000000504d8]
[r233n16:30202] [ 1] /lib64/power9/libc.so.6(gsignal+0xd8)[0x20000bb63798]
[r233n16:30202] [ 2] /lib64/power9/libc.so.6(abort+0x164)[0x20000bb43bac]
[r233n16:30202] [ 3] /cineca/prod/opt/compilers/gnu/8.4.0/none/lib64/libstdc++.so.6(_ZN9__gnu_cxx27__verbose_terminate_handlerEv+0x158)[0x20000b32bd38]
[r233n16:30202] [ 4] /cineca/prod/opt/compilers/gnu/8.4.0/none/lib64/libstdc++.so.6(+0xb6c44)[0x20000b326c44]
[r233n16:30202] [ 5] /cineca/prod/opt/compilers/gnu/8.4.0/none/lib64/libstdc++.so.6(_ZSt9terminatev+0x20)[0x20000b326d00]
[r233n16:30202] [ 6] /cineca/prod/opt/compilers/gnu/8.4.0/none/lib64/libstdc++.so.6(__cxa_throw+0x7c)[0x20000b3271dc]
[r233n16:30202] [ 7] lmp_kokkos_cuda_mpi(_ZN6Kokkos4Impl23throw_runtime_exceptionERKNSt7__cxx1112basic_stringIcSt11char_traitsIcESaIcEEE+0xac)[0x12bd189c]
[r233n16:30202] [ 8] lmp_kokkos_cuda_mpi(_ZN6Kokkos4Impl41safe_throw_allocation_with_header_failureERKNSt7__cxx1112basic_stringIcSt11char_traitsIcESaIcEEES8_RKNS_12Experimental26RawMemoryAllocationFailureE+0x224)[0x12be1654]
[r233n16:30202] [ 9] lmp_kokkos_cuda_mpi(_ZN6Kokkos4Impl30checked_allocation_with_headerINS_9CudaSpaceEEEPNS0_22SharedAllocationHeaderERKT_RKNSt7__cxx1112basic_stringIcSt11char_traitsIcESaIcEEEm+0x80)[0x12be1010]
[r233n16:30202] [10] lmp_kokkos_cuda_mpi(_ZN6Kokkos4Impl22SharedAllocationRecordINS_9CudaSpaceEvEC1ERKS2_RKNSt7__cxx1112basic_stringIcSt11char_traitsIcESaIcEEEmPFvPNS1_IvvEEE+0x4c)[0x12bdd35c]
[r233n16:30202] [11] lmp_kokkos_cuda_mpi(_ZN6Kokkos4ViewIA3_PdJNS_11LayoutRightENS_4CudaEvEEC2INSt7__cxx1112basic_stringIcSt11char_traitsIcESaIcEEEEERKT_NSt9enable_ifIXsrNS_4Impl13is_view_labelISD_EE5valueEKmE4typeEmmmmmmm+0x1c0)[0x10a166b0]
[r233n16:30202] [12] lmp_kokkos_cuda_mpi(_ZN6Kokkos8DualViewIA3_PdNS_11LayoutRightENS_4CudaEvE6resizeEmmmmmmmm+0xf8)[0x10a2b868]
[r233n16:30202] [13] lmp_kokkos_cuda_mpi(_ZN9LAMMPS_NS12MemoryKokkos11grow_kokkosIN6Kokkos8DualViewIA3_PdNS2_11LayoutRightENS2_4CudaEvEEEET_RS9_RPPNS9_10value_typeEiPKc+0x78)[0x10a2c7b8]
[r233n16:30202] [14] lmp_kokkos_cuda_mpi(_ZN9LAMMPS_NS19AtomVecAtomicKokkos4growEi+0x27c)[0x1262e9dc]
[r233n16:30202] [15] lmp_kokkos_cuda_mpi(_ZN9LAMMPS_NS19AtomVecAtomicKokkos20unpack_border_kokkosERKiS2_RKN6Kokkos8DualViewIPPdNS3_11LayoutRightENS3_4CudaEvEENS_14ExecutionSpaceE+0x8c)[0x12629a4c]
[r233n16:30202] [16] lmp_kokkos_cuda_mpi(_ZN9LAMMPS_NS10CommKokkos14borders_deviceIN6Kokkos4CudaEEEvv+0x5b0)[0x11258710]
[r233n16:30202] [17] lmp_kokkos_cuda_mpi(_ZN9LAMMPS_NS10CommKokkos7bordersEv+0x248)[0x1124a798]
[r233n16:30202] [18] lmp_kokkos_cuda_mpi(_ZN9LAMMPS_NS12VerletKokkos5setupEi+0x1d0)[0x12b3e0c0]
[r233n16:30202] [19] lmp_kokkos_cuda_mpi(_ZN9LAMMPS_NS3Run7commandEiPPc+0x14fc)[0x1098148c]
[r233n16:30202] [20] lmp_kokkos_cuda_mpi(_ZN9LAMMPS_NS5Input15execute_commandEv+0x2bf0)[0x1091c6f0]
[r233n16:30202] [21] lmp_kokkos_cuda_mpi(_ZN9LAMMPS_NS5Input4fileEv+0x2b0)[0x1091d3b0]
[r233n16:30202] [22] lmp_kokkos_cuda_mpi(main+0x6c)[0x1086af4c]
[r233n16:30202] [23] /lib64/power9/libc.so.6(+0x241f8)[0x20000bb441f8]
[r233n16:30202] [24] /lib64/power9/libc.so.6(__libc_start_main+0xb4)[0x20000bb443e4]
[r233n16:30202] *** End of error message ***
terminate called after throwing an instance of 'std::runtime_error'
  what():  Kokkos failed to allocate memory for label "atom:f".  Allocation using MemorySpace named "Cuda" failed with the following error:  Allocation of size 78.03 K failed, likely due to insufficient memory.  (The allocation mechanism was cudaMalloc().  The Cuda allocation returned the error code ""cudaErrorMemoryAllocation".)

Traceback functionality not available

[r229n16:104061] *** Process received signal ***
[r229n16:104061] Signal: Aborted (6)
[r229n16:104061] Signal code:  (-6)
[r229n16:104061] [ 0] linux-vdso64.so.1(__kernel_sigtramp_rt64+0x0)[0x2000000504d8]
[r229n16:104061] [ 1] /lib64/power9/libc.so.6(gsignal+0xd8)[0x20000bb63798]
[r229n16:104061] [ 2] /lib64/power9/libc.so.6(abort+0x164)[0x20000bb43bac]
[r229n16:104061] [ 3] /cineca/prod/opt/compilers/gnu/8.4.0/none/lib64/libstdc++.so.6(_ZN9__gnu_cxx27__verbose_terminate_handlerEv+0x158)[0x20000b32bd38]
[r229n16:104061] [ 4] /cineca/prod/opt/compilers/gnu/8.4.0/none/lib64/libstdc++.so.6(+0xb6c44)[0x20000b326c44]
[r229n16:104061] [ 5] /cineca/prod/opt/compilers/gnu/8.4.0/none/lib64/libstdc++.so.6(_ZSt9terminatev+0x20)[0x20000b326d00]
[r229n16:104061] [ 6] /cineca/prod/opt/compilers/gnu/8.4.0/none/lib64/libstdc++.so.6(__cxa_throw+0x7c)[0x20000b3271dc]
[r229n16:104061] [ 7] lmp_kokkos_cuda_mpi(_ZN6Kokkos4Impl23throw_runtime_exceptionERKNSt7__cxx1112basic_stringIcSt11char_traitsIcESaIcEEE+0xac)[0x12bd189c]
[r229n16:104061] [ 8] lmp_kokkos_cuda_mpi(_ZN6Kokkos4Impl41safe_throw_allocation_with_header_failureERKNSt7__cxx1112basic_stringIcSt11char_traitsIcESaIcEEES8_RKNS_12Experimental26RawMemoryAllocationFailureE+0x224)[0x12be1654]
[r229n16:104061] [ 9] lmp_kokkos_cuda_mpi(_ZN6Kokkos4Impl30checked_allocation_with_headerINS_9CudaSpaceEEEPNS0_22SharedAllocationHeaderERKT_RKNSt7__cxx1112basic_stringIcSt11char_traitsIcESaIcEEEm+0x80)[0x12be1010]
[r229n16:104061] [10] lmp_kokkos_cuda_mpi(_ZN6Kokkos4Impl22SharedAllocationRecordINS_9CudaSpaceEvEC1ERKS2_RKNSt7__cxx1112basic_stringIcSt11char_traitsIcESaIcEEEmPFvPNS1_IvvEEE+0x4c)[0x12bdd35c]
[r229n16:104061] [11] lmp_kokkos_cuda_mpi(_ZN6Kokkos4ViewIA3_PdJNS_11LayoutRightENS_4CudaEvEEC2INSt7__cxx1112basic_stringIcSt11char_traitsIcESaIcEEEEERKT_NSt9enable_ifIXsrNS_4Impl13is_view_labelISD_EE5valueEKmE4typeEmmmmmmm+0x1c0)[0x10a166b0]
[r229n16:104061] [12] lmp_kokkos_cuda_mpi(_ZN6Kokkos8DualViewIA3_PdNS_11LayoutRightENS_4CudaEvE6resizeEmmmmmmmm+0xf8)[0x10a2b868]
[r229n16:104061] [13] lmp_kokkos_cuda_mpi(_ZN9LAMMPS_NS12MemoryKokkos11grow_kokkosIN6Kokkos8DualViewIA3_PdNS2_11LayoutRightENS2_4CudaEvEEEET_RS9_RPPNS9_10value_typeEiPKc+0x78)[0x10a2c7b8]
[r229n16:104061] [14] lmp_kokkos_cuda_mpi(_ZN9LAMMPS_NS19AtomVecAtomicKokkos4growEi+0x27c)[0x1262e9dc]
[r229n16:104061] [15] lmp_kokkos_cuda_mpi(_ZN9LAMMPS_NS19AtomVecAtomicKokkos20unpack_border_kokkosERKiS2_RKN6Kokkos8DualViewIPPdNS3_11LayoutRightENS3_4CudaEvEENS_14ExecutionSpaceE+0x8c)[0x12629a4c]
[...]
[r229n16:104064] [21] lmp_kokkos_cuda_mpi(_ZN9LAMMPS_NS5Input4fileEv+0x2b0)[0x1091d3b0]
[r229n16:104064] [22] lmp_kokkos_cuda_mpi(main+0x6c)[0x1086af4c]
[r229n16:104064] [23] /lib64/power9/libc.so.6(+0x241f8)[0x20000bb441f8]
[r229n16:104064] [24] /lib64/power9/libc.so.6(__libc_start_main+0xb4)[0x20000bb443e4]
[r229n16:104064] *** End of error message ***
terminate called after throwing an instance of 'std::runtime_error'
  what():  Kokkos failed to allocate memory for label "atom:f".  Allocation using MemorySpace named "Cuda" failed with the following error:  Allocation of size 78.03 K failed, likely due to insufficient memory.  (The allocation mechanism was cudaMalloc().  The Cuda allocation returned the error code ""cudaErrorMemoryAllocation".)

Traceback functionality not available

[r229n16:104065] *** Process received signal ***
[r229n16:104065] Signal: Aborted (6)
[r229n16:104065] Signal code:  (-6)
[r229n16:104065] [ 0] linux-vdso64.so.1(__kernel_sigtramp_rt64+0x0)[0x2000000504d8]
[r229n16:104065] [ 1] /lib64/power9/libc.so.6(gsignal+0xd8)[0x20000bb63798]
[r229n16:104065] [ 2] /lib64/power9/libc.so.6(abort+0x164)[0x20000bb43bac]
[r229n16:104065] [ 3] /cineca/prod/opt/compilers/gnu/8.4.0/none/lib64/libstdc++.so.6(_ZN9__gnu_cxx27__verbose_terminate_handlerEv+0x158)[0x20000b32bd38]
[r229n16:104065] [ 4] /cineca/prod/opt/compilers/gnu/8.4.0/none/lib64/libstdc++.so.6(+0xb6c44)[0x20000b326c44]
[r229n16:104065] [ 5] /cineca/prod/opt/compilers/gnu/8.4.0/none/lib64/libstdc++.so.6(_ZSt9terminatev+0x20)[0x20000b326d00]
[r229n16:104065] [ 6] /cineca/prod/opt/compilers/gnu/8.4.0/none/lib64/libstdc++.so.6(__cxa_throw+0x7c)[0x20000b3271dc]
[r229n16:104065] [ 7] lmp_kokkos_cuda_mpi(_ZN6Kokkos4Impl23throw_runtime_exceptionERKNSt7__cxx1112basic_stringIcSt11char_traitsIcESaIcEEE+0xac)[0x12bd189c]
[r229n16:104065] [ 8] lmp_kokkos_cuda_mpi(_ZN6Kokkos4Impl41safe_throw_allocation_with_header_failureERKNSt7__cxx1112basic_stringIcSt11char_traitsIcESaIcEEES8_RKNS_12Experimental26RawMemoryAllocationFailureE+0x224)[0x12be1654]
[r229n16:104065] [ 9] lmp_kokkos_cuda_mpi(_ZN6Kokkos4Impl30checked_allocation_with_headerINS_9CudaSpaceEEEPNS0_22SharedAllocationHeaderERKT_RKNSt7__cxx1112basic_stringIcSt11char_traitsIcESaIcEEEm+0x80)[0x12be1010]
[r229n16:104065] [10] lmp_kokkos_cuda_mpi(_ZN6Kokkos4Impl22SharedAllocationRecordINS_9CudaSpaceEvEC1ERKS2_RKNSt7__cxx1112basic_stringIcSt11char_traitsIcESaIcEEEmPFvPNS1_IvvEEE+0x4c)[0x12bdd35c]
[r229n16:104065] [11] lmp_kokkos_cuda_mpi(_ZN6Kokkos4ViewIA3_PdJNS_11LayoutRightENS_4CudaEvEEC2INSt7__cxx1112basic_stringIcSt11char_traitsIcESaIcEEEEERKT_NSt9enable_ifIXsrNS_4Impl13is_view_labelISD_EE5valueEKmE4typeEmmmmmmm+0x1c0)[0x10a166b0]
[r229n16:104065] [12] lmp_kokkos_cuda_mpi(_ZN6Kokkos8DualViewIA3_PdNS_11LayoutRightENS_4CudaEvE6resizeEmmmmmmmm+0xf8)[0x10a2b868]
[r229n16:104065] [13] lmp_kokkos_cuda_mpi(_ZN9LAMMPS_NS12MemoryKokkos11grow_kokkosIN6Kokkos8DualViewIA3_PdNS2_11LayoutRightENS2_4CudaEvEEEET_RS9_RPPNS9_10value_typeEiPKc+0x78)[0x10a2c7b8]
[r229n16:104065] [14] lmp_kokkos_cuda_mpi(_ZN9LAMMPS_NS19AtomVecAtomicKokkos4growEi+0x27c)[0x1262e9dc]
[r229n16:104065] [15] lmp_kokkos_cuda_mpi(_ZN9LAMMPS_NS19AtomVecAtomicKokkos20unpack_border_kokkosERKiS2_RKN6Kokkos8DualViewIPPdNS3_11LayoutRightENS3_4CudaEvEENS_14ExecutionSpaceE+0x8c)[0x12629a4c]
[r229n16:104065] [16] lmp_kokkos_cuda_mpi(_ZN9LAMMPS_NS10CommKokkos14borders_deviceIN6Kokkos4CudaEEEvv+0x5b0)[0x11258710]
[r229n16:104065] [17] lmp_kokkos_cuda_mpi(_ZN9LAMMPS_NS10CommKokkos7bordersEv+0x248)[0x1124a798]
[r229n16:104065] [18] lmp_kokkos_cuda_mpi(_ZN9LAMMPS_NS12VerletKokkos5setupEi+0x1d0)[0x12b3e0c0]
[r229n16:104065] [19] lmp_kokkos_cuda_mpi(_ZN9LAMMPS_NS3Run7commandEiPPc+0x14fc)[0x1098148c]
[r229n16:104065] [20] lmp_kokkos_cuda_mpi(_ZN9LAMMPS_NS5Input15execute_commandEv+0x2bf0)[0x1091c6f0]
[r229n16:104065] [21] lmp_kokkos_cuda_mpi(_ZN9LAMMPS_NS5Input4fileEv+0x2b0)[0x1091d3b0]
[r229n16:104065] [22] lmp_kokkos_cuda_mpi(main+0x6c)[0x1086af4c]
[r229n16:104065] [23] /lib64/power9/libc.so.6(+0x241f8)[0x20000bb441f8]
[r229n16:104065] [24] /lib64/power9/libc.so.6(__libc_start_main+0xb4)[0x20000bb443e4]
[r229n16:104065] *** End of error message ***
terminate called after throwing an instance of 'std::runtime_error'
  what():  Kokkos failed to allocate memory for label "atom:f".  Allocation using MemorySpace named "Cuda" failed with the following error:  Allocation of size 70.09 K failed, likely due to insufficient memory.  (The allocation mechanism was cudaMalloc().  The Cuda allocation returned the error code ""cudaErrorMemoryAllocation".)

Traceback functionality not available

[r229n16:104049] *** Process received signal ***
[r229n16:104049] Signal: Aborted (6)
[r229n16:104049] Signal code:  (-6)
[r229n16:104049] [ 0] linux-vdso64.so.1(__kernel_sigtramp_rt64+0x0)[0x2000000504d8]
[r229n16:104049] [ 1] /lib64/power9/libc.so.6(gsignal+0xd8)[0x20000bb63798]
[r229n16:104049] [ 2] /lib64/power9/libc.so.6(abort+0x164)[0x20000bb43bac]
[r229n16:104049] [ 3] /cineca/prod/opt/compilers/gnu/8.4.0/none/lib64/libstdc++.so.6(_ZN9__gnu_cxx27__verbose_terminate_handlerEv+0x158)[0x20000b32bd38]
[r229n16:104049] [ 4] /cineca/prod/opt/compilers/gnu/8.4.0/none/lib64/libstdc++.so.6(+0xb6c44)[0x20000b326c44]
[r229n16:104049] [ 5] /cineca/prod/opt/compilers/gnu/8.4.0/none/lib64/libstdc++.so.6(_ZSt9terminatev+0x20)[0x20000b326d00]
[r229n16:104049] [ 6] /cineca/prod/opt/compilers/gnu/8.4.0/none/lib64/libstdc++.so.6(__cxa_throw+0x7c)[0x20000b3271dc]
[r229n16:104049] [ 7] lmp_kokkos_cuda_mpi(_ZN6Kokkos4Impl23throw_runtime_exceptionERKNSt7__cxx1112basic_stringIcSt11char_traitsIcESaIcEEE+0xac)[0x12bd189c]
[r229n16:104049] [ 8] lmp_kokkos_cuda_mpi(_ZN6Kokkos4Impl41safe_throw_allocation_with_header_failureERKNSt7__cxx1112basic_stringIcSt11char_traitsIcESaIcEEES8_RKNS_12Experimental26RawMemoryAllocationFailureE+0x224)[0x12be1654]
[r229n16:104049] [ 9] lmp_kokkos_cuda_mpi(_ZN6Kokkos4Impl30checked_allocation_with_headerINS_9CudaSpaceEEEPNS0_22SharedAllocationHeaderERKT_RKNSt7__cxx1112basic_stringIcSt11char_traitsIcESaIcEEEm+0x80)[0x12be1010]
[r229n16:104049] [10] lmp_kokkos_cuda_mpi(_ZN6Kokkos4Impl22SharedAllocationRecordINS_9CudaSpaceEvEC1ERKS2_RKNSt7__cxx1112basic_stringIcSt11char_traitsIcESaIcEEEmPFvPNS1_IvvEEE+0x4c)[0x12bdd35c]
[r229n16:104049] [11] lmp_kokkos_cuda_mpi(_ZN6Kokkos4ViewIA3_PdJNS_11LayoutRightENS_4CudaEvEEC2INSt7__cxx1112basic_stringIcSt11char_traitsIcESaIcEEEEERKT_NSt9enable_ifIXsrNS_4Impl13is_view_labelISD_EE5valueEKmE4typeEmmmmmmm+0x1c0)[0x10a166b0]
[r229n16:104049] [12] lmp_kokkos_cuda_mpi(_ZN6Kokkos8DualViewIA3_PdNS_11LayoutRightENS_4CudaEvE6resizeEmmmmmmmm+0xf8)[0x10a2b868]
[r229n16:104049] [13] lmp_kokkos_cuda_mpi(_ZN9LAMMPS_NS12MemoryKokkos11grow_kokkosIN6Kokkos8DualViewIA3_PdNS2_11LayoutRightENS2_4CudaEvEEEET_RS9_RPPNS9_10value_typeEiPKc+0x78)[0x10a2c7b8]
[r229n16:104049] [14] lmp_kokkos_cuda_mpi(_ZN9LAMMPS_NS19AtomVecAtomicKokkos4growEi+0x27c)[0x1262e9dc]
[r229n16:104049] [15] lmp_kokkos_cuda_mpi(_ZN9LAMMPS_NS19AtomVecAtomicKokkos20unpack_border_kokkosERKiS2_RKN6Kokkos8DualViewIPPdNS3_11LayoutRightENS3_4CudaEvEENS_14ExecutionSpaceE+0x8c)[0x12629a4c]
[r229n16:104049] [16] lmp_kokkos_cuda_mpi(_ZN9LAMMPS_NS10CommKokkos14borders_deviceIN6Kokkos4CudaEEEvv+0x5b0)[0x11258710]
[r229n16:104049] [17] lmp_kokkos_cuda_mpi(_ZN9LAMMPS_NS10CommKokkos7bordersEv+0x248)[0x1124a798]
[r229n16:104049] [18] lmp_kokkos_cuda_mpi(_ZN9LAMMPS_NS12VerletKokkos5setupEi+0x1d0)[0x12b3e0c0]
[r229n16:104049] [19] lmp_kokkos_cuda_mpi(_ZN9LAMMPS_NS3Run7commandEiPPc+0x14fc)[0x1098148c]
[r229n16:104049] [20] lmp_kokkos_cuda_mpi(_ZN9LAMMPS_NS5Input15execute_commandEv+0x2bf0)[0x1091c6f0]
[r229n16:104049] [21] lmp_kokkos_cuda_mpi(_ZN9LAMMPS_NS5Input4fileEv+0x2b0)[0x1091d3b0]
[r229n16:104049] [22] lmp_kokkos_cuda_mpi(main+0x6c)[0x1086af4c]
[r229n16:104049] [23] /lib64/power9/libc.so.6(+0x241f8)[0x20000bb441f8]
[r229n16:104049] [24] /lib64/power9/libc.so.6(__libc_start_main+0xb4)[0x20000bb443e4]
[r229n16:104049] *** End of error message ***
terminate called after throwing an instance of 'std::runtime_error'
  what():  Kokkos failed to allocate memory for label "atom:f".  Allocation using MemorySpace named "Cuda" failed with the following error:  Allocation of size 70.09 K failed, likely due to insufficient memory.  (The allocation mechanism was cudaMalloc().  The Cuda allocation returned the error code ""cudaErrorMemoryAllocation".)

Traceback functionality not available

[r229n16:104047] *** Process received signal ***
[r229n16:104047] Signal: Aborted (6)
[r229n16:104047] Signal code:  (-6)
[r229n16:104047] [ 0] linux-vdso64.so.1(__kernel_sigtramp_rt64+0x0)[0x2000000504d8]
[r229n16:104047] [ 1] /lib64/power9/libc.so.6(gsignal+0xd8)[0x20000bb63798]
[r229n16:104047] [ 2] /lib64/power9/libc.so.6(abort+0x164)[0x20000bb43bac]
[r229n16:104047] [ 3] /cineca/prod/opt/compilers/gnu/8.4.0/none/lib64/libstdc++.so.6(_ZN9__gnu_cxx27__verbose_terminate_handlerEv+0x158)[0x20000b32bd38]
[r229n16:104047] [ 4] /cineca/prod/opt/compilers/gnu/8.4.0/none/lib64/libstdc++.so.6(+0xb6c44)[0x20000b326c44]
[r229n16:104047] [ 5] /cineca/prod/opt/compilers/gnu/8.4.0/none/lib64/libstdc++.so.6(_ZSt9terminatev+0x20)[0x20000b326d00]
[r229n16:104047] [ 6] /cineca/prod/opt/compilers/gnu/8.4.0/none/lib64/libstdc++.so.6(__cxa_throw+0x7c)[0x20000b3271dc]
[r229n16:104047] [ 7] lmp_kokkos_cuda_mpi(_ZN6Kokkos4Impl23throw_runtime_exceptionERKNSt7__cxx1112basic_stringIcSt11char_traitsIcESaIcEEE+0xac)[0x12bd189c]
[r229n16:104047] [ 8] lmp_kokkos_cuda_mpi(_ZN6Kokkos4Impl41safe_throw_allocation_with_header_failureERKNSt7__cxx1112basic_stringIcSt11char_traitsIcESaIcEEES8_RKNS_12Experimental26RawMemoryAllocationFailureE+0x224)[0x12be1654]
[r229n16:104047] [ 9] lmp_kokkos_cuda_mpi(_ZN6Kokkos4Impl30checked_allocation_with_headerINS_9CudaSpaceEEEPNS0_22SharedAllocationHeaderERKT_RKNSt7__cxx1112basic_stringIcSt11char_traitsIcESaIcEEEm+0x80)[0x12be1010]
[r229n16:104047] [10] lmp_kokkos_cuda_mpi(_ZN6Kokkos4Impl22SharedAllocationRecordINS_9CudaSpaceEvEC1ERKS2_RKNSt7__cxx1112basic_stringIcSt11char_traitsIcESaIcEEEmPFvPNS1_IvvEEE+0x4c)[0x12bdd35c]
[r229n16:104047] [11] lmp_kokkos_cuda_mpi(_ZN6Kokkos4ViewIA3_PdJNS_11LayoutRightENS_4CudaEvEEC2INSt7__cxx1112basic_stringIcSt11char_traitsIcESaIcEEEEERKT_NSt9enable_ifIXsrNS_4Impl13is_view_labelISD_EE5valueEKmE4typeEmmmmmmm+0x1c0)[0x10a166b0]
[r229n16:104047] [12] lmp_kokkos_cuda_mpi(_ZN6Kokkos8DualViewIA3_PdNS_11LayoutRightENS_4CudaEvE6resizeEmmmmmmmm+0xf8)[0x10a2b868]
[r229n16:104047] [13] lmp_kokkos_cuda_mpi(_ZN9LAMMPS_NS12MemoryKokkos11grow_kokkosIN6Kokkos8DualViewIA3_PdNS2_11LayoutRightENS2_4CudaEvEEEET_RS9_RPPNS9_10value_typeEiPKc+0x78)[0x10a2c7b8]
[r229n16:104047] [14] lmp_kokkos_cuda_mpi(_ZN9LAMMPS_NS19AtomVecAtomicKokkos4growEi+0x27c)[0x1262e9dc]
[r229n16:104047] [15] lmp_kokkos_cuda_mpi(_ZN9LAMMPS_NS19AtomVecAtomicKokkos20unpack_border_kokkosERKiS2_RKN6Kokkos8DualViewIPPdNS3_11LayoutRightENS3_4CudaEvEENS_14ExecutionSpaceE+0x8c)[0x12629a4c]
[r229n16:104047] [16] lmp_kokkos_cuda_mpi(_ZN9LAMMPS_NS10CommKokkos14borders_deviceIN6Kokkos4CudaEEEvv+0x5b0)[0x11258710]
[r229n16:104047] [17] lmp_kokkos_cuda_mpi(_ZN9LAMMPS_NS10CommKokkos7bordersEv+0x248)[0x1124a798]
[r229n16:104047] [18] lmp_kokkos_cuda_mpi(_ZN9LAMMPS_NS12VerletKokkos5setupEi+0x1d0)[0x12b3e0c0]
[r229n16:104047] [19] lmp_kokkos_cuda_mpi(_ZN9LAMMPS_NS3Run7commandEiPPc+0x14fc)[0x1098148c]
[r229n16:104047] [20] lmp_kokkos_cuda_mpi(_ZN9LAMMPS_NS5Input15execute_commandEv+0x2bf0)[0x1091c6f0]
[r229n16:104047] [21] lmp_kokkos_cuda_mpi(_ZN9LAMMPS_NS5Input4fileEv+0x2b0)[0x1091d3b0]
[r229n16:104047] [22] lmp_kokkos_cuda_mpi(main+0x6c)[0x1086af4c]
[r229n16:104047] [23] /lib64/power9/libc.so.6(+0x241f8)[0x20000bb441f8]
[r229n16:104047] [24] /lib64/power9/libc.so.6(__libc_start_main+0xb4)[0x20000bb443e4]
[r229n16:104047] *** End of error message ***
terminate called after throwing an instance of 'std::runtime_error'
  what():  Kokkos failed to allocate memory for label "atom:f".  Allocation using MemorySpace named "Cuda" failed with the following error:  Allocation of size 70.09 K failed, likely due to insufficient memory.  (The allocation mechanism was cudaMalloc().  The Cuda allocation returned the error code ""cudaErrorMemoryAllocation".)

Traceback functionality not available

[r229n16:104050] *** Process received signal ***
[r229n16:104050] Signal: Aborted (6)
[r229n16:104050] Signal code:  (-6)
[r229n16:104050] [ 0] linux-vdso64.so.1(__kernel_sigtramp_rt64+0x0)[0x2000000504d8]
[r229n16:104050] [ 1] /lib64/power9/libc.so.6(gsignal+0xd8)[0x20000bb63798]
[r229n16:104050] [ 2] /lib64/power9/libc.so.6(abort+0x164)[0x20000bb43bac]
[r229n16:104050] [ 3] /cineca/prod/opt/compilers/gnu/8.4.0/none/lib64/libstdc++.so.6(_ZN9__gnu_cxx27__verbose_terminate_handlerEv+0x158)[0x20000b32bd38]
[r229n16:104050] [ 4] /cineca/prod/opt/compilers/gnu/8.4.0/none/lib64/libstdc++.so.6(+0xb6c44)[0x20000b326c44]
[r229n16:104050] [ 5] /cineca/prod/opt/compilers/gnu/8.4.0/none/lib64/libstdc++.so.6(_ZSt9terminatev+0x20)[0x20000b326d00]
[r229n16:104050] [ 6] /cineca/prod/opt/compilers/gnu/8.4.0/none/lib64/libstdc++.so.6(__cxa_throw+0x7c)[0x20000b3271dc]
[r229n16:104050] [ 7] lmp_kokkos_cuda_mpi(_ZN6Kokkos4Impl23throw_runtime_exceptionERKNSt7__cxx1112basic_stringIcSt11char_traitsIcESaIcEEE+0xac)[0x12bd189c]
[r229n16:104050] [ 8] lmp_kokkos_cuda_mpi(_ZN6Kokkos4Impl41safe_throw_allocation_with_header_failureERKNSt7__cxx1112basic_stringIcSt11char_traitsIcESaIcEEES8_RKNS_12Experimental26RawMemoryAllocationFailureE+0x224)[0x12be1654]
[r229n16:104050] [ 9] lmp_kokkos_cuda_mpi(_ZN6Kokkos4Impl30checked_allocation_with_headerINS_9CudaSpaceEEEPNS0_22SharedAllocationHeaderERKT_RKNSt7__cxx1112basic_stringIcSt11char_traitsIcESaIcEEEm+0x80)[0x12be1010]
[r229n16:104050] [10] lmp_kokkos_cuda_mpi(_ZN6Kokkos4Impl22SharedAllocationRecordINS_9CudaSpaceEvEC1ERKS2_RKNSt7__cxx1112basic_stringIcSt11char_traitsIcESaIcEEEmPFvPNS1_IvvEEE+0x4c)[0x12bdd35c]
[r229n16:104050] [11] lmp_kokkos_cuda_mpi(_ZN6Kokkos4ViewIA3_PdJNS_11LayoutRightENS_4CudaEvEEC2INSt7__cxx1112basic_stringIcSt11char_traitsIcESaIcEEEEERKT_NSt9enable_ifIXsrNS_4Impl13is_view_labelISD_EE5valueEKmE4typeEmmmmmmm+0x1c0)[0x10a166b0]
[r229n16:104050] [12] lmp_kokkos_cuda_mpi(_ZN6Kokkos8DualViewIA3_PdNS_11LayoutRightENS_4CudaEvE6resizeEmmmmmmmm+0xf8)[0x10a2b868]
[r229n16:104050] [13] lmp_kokkos_cuda_mpi(_ZN9LAMMPS_NS12MemoryKokkos11grow_kokkosIN6Kokkos8DualViewIA3_PdNS2_11LayoutRightENS2_4CudaEvEEEET_RS9_RPPNS9_10value_typeEiPKc+0x78)[0x10a2c7b8]
[r229n16:104050] [14] lmp_kokkos_cuda_mpi(_ZN9LAMMPS_NS19AtomVecAtomicKokkos4growEi+0x27c)[0x1262e9dc]
[r229n16:104050] [15] lmp_kokkos_cuda_mpi(_ZN9LAMMPS_NS19AtomVecAtomicKokkos20unpack_border_kokkosERKiS2_RKN6Kokkos8DualViewIPPdNS3_11LayoutRightENS3_4CudaEvEENS_14ExecutionSpaceE+0x8c)[0x12629a4c]
[r229n16:104050] [16] lmp_kokkos_cuda_mpi(_ZN9LAMMPS_NS10CommKokkos14borders_deviceIN6Kokkos4CudaEEEvv+0x5b0)[0x11258710]
[r229n16:104050] [17] lmp_kokkos_cuda_mpi(_ZN9LAMMPS_NS10CommKokkos7bordersEv+0x248)[0x1124a798]
[r229n16:104050] [18] lmp_kokkos_cuda_mpi(_ZN9LAMMPS_NS12VerletKokkos5setupEi+0x1d0)[0x12b3e0c0]
[r229n16:104050] [19] lmp_kokkos_cuda_mpi(_ZN9LAMMPS_NS3Run7commandEiPPc+0x14fc)[0x1098148c]
[r229n16:104050] [20] lmp_kokkos_cuda_mpi(_ZN9LAMMPS_NS5Input15execute_commandEv+0x2bf0)[0x1091c6f0]
[r229n16:104050] [21] lmp_kokkos_cuda_mpi(_ZN9LAMMPS_NS5Input4fileEv+0x2b0)[0x1091d3b0]
[r229n16:104050] [22] lmp_kokkos_cuda_mpi(main+0x6c)[0x1086af4c]
[r229n16:104050] [23] /lib64/power9/libc.so.6(+0x241f8)[0x20000bb441f8]
[r229n16:104050] [24] /lib64/power9/libc.so.6(__libc_start_main+0xb4)[0x20000bb443e4]
[r229n16:104050] *** End of error message ***
terminate called after throwing an instance of 'std::runtime_error'
  what():  Kokkos failed to allocate memory for label "atom:f".  Allocation using MemorySpace named "Cuda" failed with the following error:  Allocation of size 70.09 K failed, likely due to insufficient memory.  (The allocation mechanism was cudaMalloc().  The Cuda allocation returned the error code ""cudaErrorMemoryAllocation".)

Traceback functionality not available

[r229n16:104048] *** Process received signal ***
[r229n16:104048] Signal: Aborted (6)
[r229n16:104048] Signal code:  (-6)
[r229n16:104048] [ 0] linux-vdso64.so.1(__kernel_sigtramp_rt64+0x0)[0x2000000504d8]
[r229n16:104048] [ 1] /lib64/power9/libc.so.6(gsignal+0xd8)[0x20000bb63798]
[r229n16:104048] [ 2] /lib64/power9/libc.so.6(abort+0x164)[0x20000bb43bac]
[r229n16:104048] [ 3] /cineca/prod/opt/compilers/gnu/8.4.0/none/lib64/libstdc++.so.6(_ZN9__gnu_cxx27__verbose_terminate_handlerEv+0x158)[0x20000b32bd38]
[r229n16:104048] [ 4] /cineca/prod/opt/compilers/gnu/8.4.0/none/lib64/libstdc++.so.6(+0xb6c44)[0x20000b326c44]
[r229n16:104048] [ 5] /cineca/prod/opt/compilers/gnu/8.4.0/none/lib64/libstdc++.so.6(_ZSt9terminatev+0x20)[0x20000b326d00]
[r229n16:104048] [ 6] /cineca/prod/opt/compilers/gnu/8.4.0/none/lib64/libstdc++.so.6(__cxa_throw+0x7c)[0x20000b3271dc]
[r229n16:104048] [ 7] lmp_kokkos_cuda_mpi(_ZN6Kokkos4Impl23throw_runtime_exceptionERKNSt7__cxx1112basic_stringIcSt11char_traitsIcESaIcEEE+0xac)[0x12bd189c]
[r229n16:104048] [ 8] lmp_kokkos_cuda_mpi(_ZN6Kokkos4Impl41safe_throw_allocation_with_header_failureERKNSt7__cxx1112basic_stringIcSt11char_traitsIcESaIcEEES8_RKNS_12Experimental26RawMemoryAllocationFailureE+0x224)[0x12be1654]
[r229n16:104048] [ 9] lmp_kokkos_cuda_mpi(_ZN6Kokkos4Impl30checked_allocation_with_headerINS_9CudaSpaceEEEPNS0_22SharedAllocationHeaderERKT_RKNSt7__cxx1112basic_stringIcSt11char_traitsIcESaIcEEEm+0x80)[0x12be1010]
[r229n16:104048] [10] lmp_kokkos_cuda_mpi(_ZN6Kokkos4Impl22SharedAllocationRecordINS_9CudaSpaceEvEC1ERKS2_RKNSt7__cxx1112basic_stringIcSt11char_traitsIcESaIcEEEmPFvPNS1_IvvEEE+0x4c)[0x12bdd35c]
[r229n16:104048] [11] lmp_kokkos_cuda_mpi(_ZN6Kokkos4ViewIA3_PdJNS_11LayoutRightENS_4CudaEvEEC2INSt7__cxx1112basic_stringIcSt11char_traitsIcESaIcEEEEERKT_NSt9enable_ifIXsrNS_4Impl13is_view_labelISD_EE5valueEKmE4typeEmmmmmmm+0x1c0)[0x10a166b0]
[r229n16:104048] [12] lmp_kokkos_cuda_mpi(_ZN6Kokkos8DualViewIA3_PdNS_11LayoutRightENS_4CudaEvE6resizeEmmmmmmmm+0xf8)[0x10a2b868]
[r229n16:104048] [13] lmp_kokkos_cuda_mpi(_ZN9LAMMPS_NS12MemoryKokkos11grow_kokkosIN6Kokkos8DualViewIA3_PdNS2_11LayoutRightENS2_4CudaEvEEEET_RS9_RPPNS9_10value_typeEiPKc+0x78)[0x10a2c7b8]
[r229n16:104048] [14] lmp_kokkos_cuda_mpi(_ZN9LAMMPS_NS19AtomVecAtomicKokkos4growEi+0x27c)[0x1262e9dc]
[r229n16:104048] [15] lmp_kokkos_cuda_mpi(_ZN9LAMMPS_NS19AtomVecAtomicKokkos20unpack_border_kokkosERKiS2_RKN6Kokkos8DualViewIPPdNS3_11LayoutRightENS3_4CudaEvEENS_14ExecutionSpaceE+0x8c)[0x12629a4c]
[r229n16:104048] [16] lmp_kokkos_cuda_mpi(_ZN9LAMMPS_NS10CommKokkos14borders_deviceIN6Kokkos4CudaEEEvv+0x5b0)[0x11258710]
[r229n16:104048] [17] lmp_kokkos_cuda_mpi(_ZN9LAMMPS_NS10CommKokkos7bordersEv+0x248)[0x1124a798]
[r229n16:104048] [18] lmp_kokkos_cuda_mpi(_ZN9LAMMPS_NS12VerletKokkos5setupEi+0x1d0)[0x12b3e0c0]
[r229n16:104048] [19] lmp_kokkos_cuda_mpi(_ZN9LAMMPS_NS3Run7commandEiPPc+0x14fc)[0x1098148c]
[r229n16:104048] [20] lmp_kokkos_cuda_mpi(_ZN9LAMMPS_NS5Input15execute_commandEv+0x2bf0)[0x1091c6f0]
[r229n16:104048] [21] lmp_kokkos_cuda_mpi(_ZN9LAMMPS_NS5Input4fileEv+0x2b0)[0x1091d3b0]
[r229n16:104048] [22] lmp_kokkos_cuda_mpi(main+0x6c)[0x1086af4c]
[r229n16:104048] [23] /lib64/power9/libc.so.6(+0x241f8)[0x20000bb441f8]
[r229n16:104048] [24] /lib64/power9/libc.so.6(__libc_start_main+0xb4)[0x20000bb443e4]
[r229n16:104048] *** End of error message ***
--------------------------------------------------------------------------
Primary job  terminated normally, but 1 process returned
a non-zero exit code. Per user-direction, the job has been aborted.
--------------------------------------------------------------------------
--------------------------------------------------------------------------
mpirun noticed that process rank 40 with PID 30194 on node r233n16 exited on signal 6 (Aborted).
--------------------------------------------------------------------------
