LAMMPS (29 Sep 2021 - Update 1)
KOKKOS mode is enabled (../kokkos.cpp:97)
  will use up to 1 GPU(s) per node
  using 1 OpenMP thread(s) per MPI task
Reading data file ...
  orthogonal box = (0.0000000 0.0000000 0.0000000) to (436.86457 57.106480 57.106480)
  16 by 2 by 2 MPI processor grid
  reading atoms ...
  120800 atoms
  read_data CPU = 0.261 seconds
800 atoms in group source
800 atoms in group detector
0 atoms in group edge
0 atoms in group edge_buf
0 atoms in group buffer
Neighbor list info ...
  update every 1 steps, delay 10 steps, check yes
  max neighbors/atom: 2000, page size: 100000
  master list distance cutoff = 7.6
  ghost atom cutoff = 7.6
  binsize = 7.6, bins = 58 8 8
  1 neighbor lists, perpetual/occasional/extra = 1 0 0
  (1) pair eam/alloy/kk, perpetual
      attributes: full, newton off, kokkos_device
      pair build: full/bin/kk/device
      stencil: full/bin/3d
      bin: kk/device
Setting up Verlet run ...
  Unit style    : metal
  Current step  : 0
  Time step     : 0.001
terminate called after throwing an instance of 'std::runtime_error'
  what():  Kokkos failed to allocate memory for label "atom:f".  Allocation using MemorySpace named "Cuda" failed with the following error:  Allocation of size 78.03 K failed, likely due to insufficient memory.  (The allocation mechanism was cudaMalloc().  The Cuda allocation returned the error code ""cudaErrorMemoryAllocation".)

Traceback functionality not available

terminate called after throwing an instance of 'std::runtime_error'
  what():  Kokkos failed to allocate memory for label "atom:f".  Allocation using MemorySpace named "Cuda" failed with the following error:  Allocation of size 78.03 K failed, likely due to insufficient memory.  (The allocation mechanism was cudaMalloc().  The Cuda allocation returned the error code ""cudaErrorMemoryAllocation".)

Traceback functionality not available

[r233n16:25357] *** Process received signal ***
terminate called after throwing an instance of 'std::runtime_error'
  what():  Kokkos failed to allocate memory for label "atom:f".  Allocation using MemorySpace named "Cuda" failed with the following error:  Allocation of size 78.03 K failed, likely due to insufficient memory.  (The allocation mechanism was cudaMalloc().  The Cuda allocation returned the error code ""cudaErrorMemoryAllocation".)

Traceback functionality not available

[r233n16:25360] *** Process received signal ***
[r233n16:25360] Signal: Aborted (6)
[r233n16:25360] Signal code:  (-6)
[r233n16:25350] *** Process received signal ***
[r233n16:25350] Signal: Aborted (6)
[r233n16:25350] Signal code:  (-6)
[r233n16:25350] [ 0] linux-vdso64.so.1(__kernel_sigtramp_rt64+0x0)[0x2000000504d8]
[r233n16:25350] [ 1] /lib64/power9/libc.so.6(gsignal+0xd8)[0x20000bb63798]
[r233n16:25350] [ 2] [r233n16:25357] Signal: Aborted (6)
[r233n16:25357] Signal code:  (-6)
[r233n16:25357] [ 0] linux-vdso64.so.1(__kernel_sigtramp_rt64+0x0)[0x2000000504d8]
[r233n16:25357] [ 1] /lib64/power9/libc.so.6(gsignal+0xd8)[0x20000bb63798]
[r233n16:25357] [ 2] /lib64/power9/libc.so.6(abort+0x164)[0x20000bb43bac]
[r233n16:25357] [r233n16:25360] [ 0] linux-vdso64.so.1(__kernel_sigtramp_rt64+0x0)[0x2000000504d8]
[r233n16:25360] [ 1] /lib64/power9/libc.so.6(gsignal+0xd8)[0x20000bb63798]
[r233n16:25360] [ 2] /lib64/power9/libc.so.6(abort+0x164)[0x20000bb43bac]
[r233n16:25360] [ 3] [ 3] /cineca/prod/opt/compilers/gnu/8.4.0/none/lib64/libstdc++.so.6(_ZN9__gnu_cxx27__verbose_terminate_handlerEv+0x158)[0x20000b32bd38]
[r233n16:25357] [ 4] /lib64/power9/libc.so.6(abort+0x164)[0x20000bb43bac]
[r233n16:25350] [ 3] /cineca/prod/opt/compilers/gnu/8.4.0/none/lib64/libstdc++.so.6(_ZN9__gnu_cxx27__verbose_terminate_handlerEv+0x158)[0x20000b32bd38]
[r233n16:25350] [ 4] /cineca/prod/opt/compilers/gnu/8.4.0/none/lib64/libstdc++.so.6(_ZN9__gnu_cxx27__verbose_terminate_handlerEv+0x158)[0x20000b32bd38]
[r233n16:25360] [ 4] /cineca/prod/opt/compilers/gnu/8.4.0/none/lib64/libstdc++.so.6(+0xb6c44)[0x20000b326c44]
[r233n16:25360] [ 5] /cineca/prod/opt/compilers/gnu/8.4.0/none/lib64/libstdc++.so.6(_ZSt9terminatev+0x20)[0x20000b326d00]
[r233n16:25360] [ 6] /cineca/prod/opt/compilers/gnu/8.4.0/none/lib64/libstdc++.so.6(+0xb6c44)[0x20000b326c44]
[r233n16:25350] [ 5] /cineca/prod/opt/compilers/gnu/8.4.0/none/lib64/libstdc++.so.6(_ZSt9terminatev+0x20)[0x20000b326d00]
[r233n16:25350] [ 6] /cineca/prod/opt/compilers/gnu/8.4.0/none/lib64/libstdc++.so.6(+0xb6c44)[0x20000b326c44]
[r233n16:25357] [ 5] /cineca/prod/opt/compilers/gnu/8.4.0/none/lib64/libstdc++.so.6(_ZSt9terminatev+0x20)[0x20000b326d00]
[r233n16:25357] [ 6] /cineca/prod/opt/compilers/gnu/8.4.0/none/lib64/libstdc++.so.6(__cxa_throw+0x7c)[0x20000b3271dc]
[r233n16:25360] [ 7] /cineca/prod/opt/compilers/gnu/8.4.0/none/lib64/libstdc++.so.6(__cxa_throw+0x7c)[0x20000b3271dc]
[r233n16:25350] [ 7] /cineca/prod/opt/compilers/gnu/8.4.0/none/lib64/libstdc++.so.6(__cxa_throw+0x7c)[0x20000b3271dc]
[r233n16:25357] [ 7] lmp_kokkos_cuda_mpi(_ZN6Kokkos4Impl23throw_runtime_exceptionERKNSt7__cxx1112basic_stringIcSt11char_traitsIcESaIcEEE+0xac)[0x12bd189c]
[r233n16:25360] [ 8] lmp_kokkos_cuda_mpi(_ZN6Kokkos4Impl23throw_runtime_exceptionERKNSt7__cxx1112basic_stringIcSt11char_traitsIcESaIcEEE+0xac)[0x12bd189c]
[r233n16:25350] [ 8] lmp_kokkos_cuda_mpi(_ZN6Kokkos4Impl23throw_runtime_exceptionERKNSt7__cxx1112basic_stringIcSt11char_traitsIcESaIcEEE+0xac)[0x12bd189c]
[r233n16:25357] [ 8] lmp_kokkos_cuda_mpi(_ZN6Kokkos4Impl41safe_throw_allocation_with_header_failureERKNSt7__cxx1112basic_stringIcSt11char_traitsIcESaIcEEES8_RKNS_12Experimental26RawMemoryAllocationFailureE+0x224)[0x12be1654]
[r233n16:25360] [ 9] lmp_kokkos_cuda_mpi(_ZN6Kokkos4Impl41safe_throw_allocation_with_header_failureERKNSt7__cxx1112basic_stringIcSt11char_traitsIcESaIcEEES8_RKNS_12Experimental26RawMemoryAllocationFailureE+0x224)[0x12be1654]
[r233n16:25357] [ 9] lmp_kokkos_cuda_mpi(_ZN6Kokkos4Impl41safe_throw_allocation_with_header_failureERKNSt7__cxx1112basic_stringIcSt11char_traitsIcESaIcEEES8_RKNS_12Experimental26RawMemoryAllocationFailureE+0x224)[0x12be1654]
[r233n16:25350] [ 9] terminate called after throwing an instance of 'std::runtime_error'
  what():  Kokkos failed to allocate memory for label "atom:f".  Allocation using MemorySpace named "Cuda" failed with the following error:  Allocation of size 78.03 K failed, likely due to insufficient memory.  (The allocation mechanism was cudaMalloc().  The Cuda allocation returned the error code ""cudaErrorMemoryAllocation".)

Traceback functionality not available

[r229n16:99357] *** Process received signal ***
[r229n16:99357] Signal: Aborted (6)
[r229n16:99357] Signal code:  (-6)
[r229n16:99357] [ 0] linux-vdso64.so.1(__kernel_sigtramp_rt64+0x0)[0x2000000504d8]
[r229n16:99357] [ 1] /lib64/power9/libc.so.6(gsignal+0xd8)[0x20000bb63798]
[r229n16:99357] [ 2] /lib64/power9/libc.so.6(abort+0x164)[0x20000bb43bac]
[r229n16:99357] [ 3] /cineca/prod/opt/compilers/gnu/8.4.0/none/lib64/libstdc++.so.6(_ZN9__gnu_cxx27__verbose_terminate_handlerEv+0x158)[0x20000b32bd38]
[r229n16:99357] [ 4] /cineca/prod/opt/compilers/gnu/8.4.0/none/lib64/libstdc++.so.6(+0xb6c44)[0x20000b326c44]
[r229n16:99357] [ 5] /cineca/prod/opt/compilers/gnu/8.4.0/none/lib64/libstdc++.so.6(_ZSt9terminatev+0x20)[0x20000b326d00]
[r229n16:99357] [ 6] /cineca/prod/opt/compilers/gnu/8.4.0/none/lib64/libstdc++.so.6(__cxa_throw+0x7c)[0x20000b3271dc]
[r229n16:99357] [ 7] lmp_kokkos_cuda_mpi(_ZN6Kokkos4Impl23throw_runtime_exceptionERKNSt7__cxx1112basic_stringIcSt11char_traitsIcESaIcEEE+0xac)[0x12bd189c]
[r229n16:99357] [ 8] lmp_kokkos_cuda_mpi(_ZN6Kokkos4Impl41safe_throw_allocation_with_header_failureERKNSt7__cxx1112basic_stringIcSt11char_traitsIcESaIcEEES8_RKNS_12Experimental26RawMemoryAllocationFailureE+0x224)[0x12be1654]
[r229n16:99357] [ 9] terminate called after throwing an instance of 'std::runtime_error'
  what():  Kokkos failed to allocate memory for label "atom:f".  Allocation using MemorySpace named "Cuda" failed with the following error:  Allocation of size 78.03 K failed, likely due to insufficient memory.  (The allocation mechanism was cudaMalloc().  The Cuda allocation returned the error code ""cudaErrorMemoryAllocation".)

Traceback functionality not available

[r233n16:25359] *** Process received signal ***
[r233n16:25359] Signal: Aborted (6)
[r233n16:25359] Signal code:  (-6)
[r233n16:25359] [ 0] linux-vdso64.so.1(__kernel_sigtramp_rt64+0x0)[0x2000000504d8]
[r233n16:25359] [ 1] /lib64/power9/libc.so.6(gsignal+0xd8)[0x20000bb63798]
[r233n16:25359] [ 2] /lib64/power9/libc.so.6(abort+0x164)[0x20000bb43bac]
[r233n16:25359] [ 3] /cineca/prod/opt/compilers/gnu/8.4.0/none/lib64/libstdc++.so.6(_ZN9__gnu_cxx27__verbose_terminate_handlerEv+0x158)[0x20000b32bd38]
[r233n16:25359] [ 4] /cineca/prod/opt/compilers/gnu/8.4.0/none/lib64/libstdc++.so.6(+0xb6c44)[0x20000b326c44]
[r233n16:25359] [ 5] /cineca/prod/opt/compilers/gnu/8.4.0/none/lib64/libstdc++.so.6(_ZSt9terminatev+0x20)[0x20000b326d00]
[r233n16:25359] [ 6] /cineca/prod/opt/compilers/gnu/8.4.0/none/lib64/libstdc++.so.6(__cxa_throw+0x7c)[0x20000b3271dc]
[r233n16:25359] [ 7] lmp_kokkos_cuda_mpi(_ZN6Kokkos4Impl23throw_runtime_exceptionERKNSt7__cxx1112basic_stringIcSt11char_traitsIcESaIcEEE+0xac)[0x12bd189c]
[r233n16:25359] [ 8] lmp_kokkos_cuda_mpi(_ZN6Kokkos4Impl41safe_throw_allocation_with_header_failureERKNSt7__cxx1112basic_stringIcSt11char_traitsIcESaIcEEES8_RKNS_12Experimental26RawMemoryAllocationFailureE+0x224)[0x12be1654]
[r233n16:25359] [ 9] lmp_kokkos_cuda_mpi(_ZN6Kokkos4Impl30checked_allocation_with_headerINS_9CudaSpaceEEEPNS0_22SharedAllocationHeaderERKT_RKNSt7__cxx1112basic_stringIcSt11char_traitsIcESaIcEEEm+0x80)[0x12be1010]
[r229n16:99357] [10] lmp_kokkos_cuda_mpi(_ZN6Kokkos4Impl22SharedAllocationRecordINS_9CudaSpaceEvEC1ERKS2_RKNSt7__cxx1112basic_stringIcSt11char_traitsIcESaIcEEEmPFvPNS1_IvvEEE+0x4c)[0x12bdd35c]
[r229n16:99357] [11] lmp_kokkos_cuda_mpi(_ZN6Kokkos4Impl30checked_allocation_with_headerINS_9CudaSpaceEEEPNS0_22SharedAllocationHeaderERKT_RKNSt7__cxx1112basic_stringIcSt11char_traitsIcESaIcEEEm+0x80)[0x12be1010]
[r233n16:25359] [10] lmp_kokkos_cuda_mpi(_ZN6Kokkos4Impl30checked_allocation_with_headerINS_9CudaSpaceEEEPNS0_22SharedAllocationHeaderERKT_RKNSt7__cxx1112basic_stringIcSt11char_traitsIcESaIcEEEm+0x80)[0x12be1010]
[r233n16:25360] [10] lmp_kokkos_cuda_mpi(_ZN6Kokkos4Impl30checked_allocation_with_headerINS_9CudaSpaceEEEPNS0_22SharedAllocationHeaderERKT_RKNSt7__cxx1112basic_stringIcSt11char_traitsIcESaIcEEEm+0x80)[0x12be1010]
[r233n16:25350] [10] lmp_kokkos_cuda_mpi(_ZN6Kokkos4Impl30checked_allocation_with_headerINS_9CudaSpaceEEEPNS0_22SharedAllocationHeaderERKT_RKNSt7__cxx1112basic_stringIcSt11char_traitsIcESaIcEEEm+0x80)[0x12be1010]
[r233n16:25357] [10] lmp_kokkos_cuda_mpi(_ZN6Kokkos4ViewIA3_PdJNS_11LayoutRightENS_4CudaEvEEC2INSt7__cxx1112basic_stringIcSt11char_traitsIcESaIcEEEEERKT_NSt9enable_ifIXsrNS_4Impl13is_view_labelISD_EE5valueEKmE4typeEmmmmmmm+0x1c0)[0x10a166b0]
[r229n16:99357] [12] lmp_kokkos_cuda_mpi(_ZN6Kokkos4Impl22SharedAllocationRecordINS_9CudaSpaceEvEC1ERKS2_RKNSt7__cxx1112basic_stringIcSt11char_traitsIcESaIcEEEmPFvPNS1_IvvEEE+0x4c)[0x12bdd35c]
[r233n16:25359] [11] lmp_kokkos_cuda_mpi(_ZN6Kokkos8DualViewIA3_PdNS_11LayoutRightENS_4CudaEvE6resizeEmmmmmmmm+0xf8)[0x10a2b868]
[r229n16:99357] [13] lmp_kokkos_cuda_mpi(_ZN6Kokkos4Impl22SharedAllocationRecordINS_9CudaSpaceEvEC1ERKS2_RKNSt7__cxx1112basic_stringIcSt11char_traitsIcESaIcEEEmPFvPNS1_IvvEEE+0x4c)[0x12bdd35c]
[r233n16:25360] [11] lmp_kokkos_cuda_mpi(_ZN6Kokkos4Impl22SharedAllocationRecordINS_9CudaSpaceEvEC1ERKS2_RKNSt7__cxx1112basic_stringIcSt11char_traitsIcESaIcEEEmPFvPNS1_IvvEEE+0x4c)[0x12bdd35c]
[r233n16:25357] [11] lmp_kokkos_cuda_mpi(_ZN6Kokkos4Impl22SharedAllocationRecordINS_9CudaSpaceEvEC1ERKS2_RKNSt7__cxx1112basic_stringIcSt11char_traitsIcESaIcEEEmPFvPNS1_IvvEEE+0x4c)[0x12bdd35c]
[r233n16:25350] [11] lmp_kokkos_cuda_mpi(_ZN6Kokkos4ViewIA3_PdJNS_11LayoutRightENS_4CudaEvEEC2INSt7__cxx1112basic_stringIcSt11char_traitsIcESaIcEEEEERKT_NSt9enable_ifIXsrNS_4Impl13is_view_labelISD_EE5valueEKmE4typeEmmmmmmm+0x1c0)[0x10a166b0]
[r233n16:25359] [12] lmp_kokkos_cuda_mpi(_ZN6Kokkos4ViewIA3_PdJNS_11LayoutRightENS_4CudaEvEEC2INSt7__cxx1112basic_stringIcSt11char_traitsIcESaIcEEEEERKT_NSt9enable_ifIXsrNS_4Impl13is_view_labelISD_EE5valueEKmE4typeEmmmmmmm+0x1c0)[0x10a166b0]
[r233n16:25360] [12] lmp_kokkos_cuda_mpi(_ZN9LAMMPS_NS12MemoryKokkos11grow_kokkosIN6Kokkos8DualViewIA3_PdNS2_11LayoutRightENS2_4CudaEvEEEET_RS9_RPPNS9_10value_typeEiPKc+0x78)[0x10a2c7b8]
[r229n16:99357] [14] lmp_kokkos_cuda_mpi(_ZN6Kokkos8DualViewIA3_PdNS_11LayoutRightENS_4CudaEvE6resizeEmmmmmmmm+0xf8)[0x10a2b868]
[r233n16:25359] [13] lmp_kokkos_cuda_mpi(_ZN6Kokkos8DualViewIA3_PdNS_11LayoutRightENS_4CudaEvE6resizeEmmmmmmmm+0xf8)[0x10a2b868]
[r233n16:25360] [13] lmp_kokkos_cuda_mpi(_ZN6Kokkos4ViewIA3_PdJNS_11LayoutRightENS_4CudaEvEEC2INSt7__cxx1112basic_stringIcSt11char_traitsIcESaIcEEEEERKT_NSt9enable_ifIXsrNS_4Impl13is_view_labelISD_EE5valueEKmE4typeEmmmmmmm+0x1c0)[0x10a166b0]
[r233n16:25350] [12] lmp_kokkos_cuda_mpi(_ZN6Kokkos4ViewIA3_PdJNS_11LayoutRightENS_4CudaEvEEC2INSt7__cxx1112basic_stringIcSt11char_traitsIcESaIcEEEEERKT_NSt9enable_ifIXsrNS_4Impl13is_view_labelISD_EE5valueEKmE4typeEmmmmmmm+0x1c0)[0x10a166b0]
[r233n16:25357] [12] lmp_kokkos_cuda_mpi(_ZN9LAMMPS_NS12MemoryKokkos11grow_kokkosIN6Kokkos8DualViewIA3_PdNS2_11LayoutRightENS2_4CudaEvEEEET_RS9_RPPNS9_10value_typeEiPKc+0x78)[0x10a2c7b8]
[r233n16:25360] [14] lmp_kokkos_cuda_mpi(_ZN9LAMMPS_NS12MemoryKokkos11grow_kokkosIN6Kokkos8DualViewIA3_PdNS2_11LayoutRightENS2_4CudaEvEEEET_RS9_RPPNS9_10value_typeEiPKc+0x78)[0x10a2c7b8]
[r233n16:25359] [14] lmp_kokkos_cuda_mpi(_ZN6Kokkos8DualViewIA3_PdNS_11LayoutRightENS_4CudaEvE6resizeEmmmmmmmm+0xf8)[0x10a2b868]
[r233n16:25357] [13] lmp_kokkos_cuda_mpi(_ZN6Kokkos8DualViewIA3_PdNS_11LayoutRightENS_4CudaEvE6resizeEmmmmmmmm+0xf8)[0x10a2b868]
[r233n16:25350] [13] lmp_kokkos_cuda_mpi(_ZN9LAMMPS_NS12MemoryKokkos11grow_kokkosIN6Kokkos8DualViewIA3_PdNS2_11LayoutRightENS2_4CudaEvEEEET_RS9_RPPNS9_10value_typeEiPKc+0x78)[0x10a2c7b8]
[r233n16:25350] [14] lmp_kokkos_cuda_mpi(_ZN9LAMMPS_NS12MemoryKokkos11grow_kokkosIN6Kokkos8DualViewIA3_PdNS2_11LayoutRightENS2_4CudaEvEEEET_RS9_RPPNS9_10value_typeEiPKc+0x78)[0x10a2c7b8]
[r233n16:25357] [14] terminate called after throwing an instance of 'std::runtime_error'
  what():  Kokkos failed to allocate memory for label "atom:f".  Allocation using MemorySpace named "Cuda" failed with the following error:  Allocation of size 78.03 K failed, likely due to insufficient memory.  (The allocation mechanism was cudaMalloc().  The Cuda allocation returned the error code ""cudaErrorMemoryAllocation".)

Traceback functionality not available

[r233n16:25364] *** Process received signal ***
[r233n16:25364] Signal: Aborted (6)
[r233n16:25364] Signal code:  (-6)
[r233n16:25364] [ 0] linux-vdso64.so.1(__kernel_sigtramp_rt64+0x0)[0x2000000504d8]
[r233n16:25364] [ 1] /lib64/power9/libc.so.6(gsignal+0xd8)[0x20000bb63798]
[r233n16:25364] [ 2] /lib64/power9/libc.so.6(abort+0x164)[0x20000bb43bac]
[r233n16:25364] [ 3] /cineca/prod/opt/compilers/gnu/8.4.0/none/lib64/libstdc++.so.6(_ZN9__gnu_cxx27__verbose_terminate_handlerEv+0x158)[0x20000b32bd38]
[r233n16:25364] [ 4] /cineca/prod/opt/compilers/gnu/8.4.0/none/lib64/libstdc++.so.6(+0xb6c44)[0x20000b326c44]
[r233n16:25364] [ 5] /cineca/prod/opt/compilers/gnu/8.4.0/none/lib64/libstdc++.so.6(_ZSt9terminatev+0x20)[0x20000b326d00]
[r233n16:25364] [ 6] /cineca/prod/opt/compilers/gnu/8.4.0/none/lib64/libstdc++.so.6(__cxa_throw+0x7c)[0x20000b3271dc]
[r233n16:25364] [ 7] lmp_kokkos_cuda_mpi(_ZN6Kokkos4Impl23throw_runtime_exceptionERKNSt7__cxx1112basic_stringIcSt11char_traitsIcESaIcEEE+0xac)[0x12bd189c]
[r233n16:25364] [ 8] lmp_kokkos_cuda_mpi(_ZN6Kokkos4Impl41safe_throw_allocation_with_header_failureERKNSt7__cxx1112basic_stringIcSt11char_traitsIcESaIcEEES8_RKNS_12Experimental26RawMemoryAllocationFailureE+0x224)[0x12be1654]
[r233n16:25364] [ 9] lmp_kokkos_cuda_mpi(_ZN6Kokkos4Impl30checked_allocation_with_headerINS_9CudaSpaceEEEPNS0_22SharedAllocationHeaderERKT_RKNSt7__cxx1112basic_stringIcSt11char_traitsIcESaIcEEEm+0x80)[0x12be1010]
[r233n16:25364] [10] lmp_kokkos_cuda_mpi(_ZN6Kokkos4Impl22SharedAllocationRecordINS_9CudaSpaceEvEC1ERKS2_RKNSt7__cxx1112basic_stringIcSt11char_traitsIcESaIcEEEmPFvPNS1_IvvEEE+0x4c)[0x12bdd35c]
[r233n16:25364] [11] lmp_kokkos_cuda_mpi(_ZN6Kokkos4ViewIA3_PdJNS_11LayoutRightENS_4CudaEvEEC2INSt7__cxx1112basic_stringIcSt11char_traitsIcESaIcEEEEERKT_NSt9enable_ifIXsrNS_4Impl13is_view_labelISD_EE5valueEKmE4typeEmmmmmmm+0x1c0)[0x10a166b0]
[r233n16:25364] [12] lmp_kokkos_cuda_mpi(_ZN6Kokkos8DualViewIA3_PdNS_11LayoutRightENS_4CudaEvE6resizeEmmmmmmmm+0xf8)[0x10a2b868]
[r233n16:25364] [13] lmp_kokkos_cuda_mpi(_ZN9LAMMPS_NS12MemoryKokkos11grow_kokkosIN6Kokkos8DualViewIA3_PdNS2_11LayoutRightENS2_4CudaEvEEEET_RS9_RPPNS9_10value_typeEiPKc+0x78)[0x10a2c7b8]
[r233n16:25364] [14] lmp_kokkos_cuda_mpi(_ZN9LAMMPS_NS19AtomVecAtomicKokkos4growEi+0x27c)[0x1262e9dc]
[r229n16:99357] [15] lmp_kokkos_cuda_mpi(_ZN9LAMMPS_NS19AtomVecAtomicKokkos4growEi+0x27c)[0x1262e9dc]
[r233n16:25360] [15] lmp_kokkos_cuda_mpi(_ZN9LAMMPS_NS19AtomVecAtomicKokkos4growEi+0x27c)[0x1262e9dc]
[r233n16:25359] [15] lmp_kokkos_cuda_mpi(_ZN9LAMMPS_NS19AtomVecAtomicKokkos4growEi+0x27c)[0x1262e9dc]
[r233n16:25357] [15] lmp_kokkos_cuda_mpi(_ZN9LAMMPS_NS19AtomVecAtomicKokkos4growEi+0x27c)[0x1262e9dc]
[r233n16:25364] [15] lmp_kokkos_cuda_mpi(_ZN9LAMMPS_NS19AtomVecAtomicKokkos4growEi+0x27c)[0x1262e9dc]
[r233n16:25350] [15] lmp_kokkos_cuda_mpi(_ZN9LAMMPS_NS19AtomVecAtomicKokkos20unpack_border_kokkosERKiS2_RKN6Kokkos8DualViewIPPdNS3_11LayoutRightENS3_4CudaEvEENS_14ExecutionSpaceE+0x8c)[0x12629a4c]
[r229n16:99357] [16] lmp_kokkos_cuda_mpi(_ZN9LAMMPS_NS19AtomVecAtomicKokkos20unpack_border_kokkosERKiS2_RKN6Kokkos8DualViewIPPdNS3_11LayoutRightENS3_4CudaEvEENS_14ExecutionSpaceE+0x8c)[0x12629a4c]
[r233n16:25360] [16] lmp_kokkos_cuda_mpi(_ZN9LAMMPS_NS19AtomVecAtomicKokkos20unpack_border_kokkosERKiS2_RKN6Kokkos8DualViewIPPdNS3_11LayoutRightENS3_4CudaEvEENS_14ExecutionSpaceE+0x8c)[0x12629a4c]
[r233n16:25364] [16] lmp_kokkos_cuda_mpi(_ZN9LAMMPS_NS19AtomVecAtomicKokkos20unpack_border_kokkosERKiS2_RKN6Kokkos8DualViewIPPdNS3_11LayoutRightENS3_4CudaEvEENS_14ExecutionSpaceE+0x8c)[0x12629a4c]
[r233n16:25359] [16] lmp_kokkos_cuda_mpi(_ZN9LAMMPS_NS19AtomVecAtomicKokkos20unpack_border_kokkosERKiS2_RKN6Kokkos8DualViewIPPdNS3_11LayoutRightENS3_4CudaEvEENS_14ExecutionSpaceE+0x8c)[0x12629a4c]
[r233n16:25357] [16] lmp_kokkos_cuda_mpi(_ZN9LAMMPS_NS10CommKokkos14borders_deviceIN6Kokkos4CudaEEEvv+0x5b0)[0x11258710]
[r229n16:99357] [17] lmp_kokkos_cuda_mpi(_ZN9LAMMPS_NS19AtomVecAtomicKokkos20unpack_border_kokkosERKiS2_RKN6Kokkos8DualViewIPPdNS3_11LayoutRightENS3_4CudaEvEENS_14ExecutionSpaceE+0x8c)[0x12629a4c]
[r233n16:25350] [16] lmp_kokkos_cuda_mpi(_ZN9LAMMPS_NS10CommKokkos14borders_deviceIN6Kokkos4CudaEEEvv+0x5b0)[0x11258710]
[r233n16:25359] [17] lmp_kokkos_cuda_mpi(_ZN9LAMMPS_NS10CommKokkos14borders_deviceIN6Kokkos4CudaEEEvv+0x5b0)[0x11258710]
[r233n16:25360] [17] lmp_kokkos_cuda_mpi(_ZN9LAMMPS_NS10CommKokkos14borders_deviceIN6Kokkos4CudaEEEvv+0x5b0)[0x11258710]
[r233n16:25364] [17] lmp_kokkos_cuda_mpi(_ZN9LAMMPS_NS10CommKokkos7bordersEv+0x248)[0x1124a798]
[r229n16:99357] [18] lmp_kokkos_cuda_mpi(_ZN9LAMMPS_NS10CommKokkos7bordersEv+0x248)[0x1124a798]
[r233n16:25359] [18] lmp_kokkos_cuda_mpi(_ZN9LAMMPS_NS10CommKokkos7bordersEv+0x248)[0x1124a798]
[r233n16:25360] [18] lmp_kokkos_cuda_mpi(_ZN9LAMMPS_NS10CommKokkos7bordersEv+0x248)[0x1124a798]
[r233n16:25364] [18] lmp_kokkos_cuda_mpi(_ZN9LAMMPS_NS10CommKokkos14borders_deviceIN6Kokkos4CudaEEEvv+0x5b0)[0x11258710]
[r233n16:25350] [17] lmp_kokkos_cuda_mpi(_ZN9LAMMPS_NS10CommKokkos14borders_deviceIN6Kokkos4CudaEEEvv+0x5b0)[0x11258710]
[r233n16:25357] [17] lmp_kokkos_cuda_mpi(_ZN9LAMMPS_NS10CommKokkos7bordersEv+0x248)[0x1124a798]
[r233n16:25350] [18] lmp_kokkos_cuda_mpi(_ZN9LAMMPS_NS10CommKokkos7bordersEv+0x248)[0x1124a798]
[r233n16:25357] [18] terminate called after throwing an instance of 'std::runtime_error'
  what():  Kokkos failed to allocate memory for label "atom:f".  Allocation using MemorySpace named "Cuda" failed with the following error:  Allocation of size 78.03 K failed, likely due to insufficient memory.  (The allocation mechanism was cudaMalloc().  The Cuda allocation returned the error code ""cudaErrorMemoryAllocation".)

Traceback functionality not available

[r233n16:25361] *** Process received signal ***
[r233n16:25361] Signal: Aborted (6)
[r233n16:25361] Signal code:  (-6)
[r233n16:25361] [ 0] linux-vdso64.so.1(__kernel_sigtramp_rt64+0x0)[0x2000000504d8]
[r233n16:25361] [ 1] /lib64/power9/libc.so.6(gsignal+0xd8)[0x20000bb63798]
[r233n16:25361] [ 2] /lib64/power9/libc.so.6(abort+0x164)[0x20000bb43bac]
[r233n16:25361] [ 3] /cineca/prod/opt/compilers/gnu/8.4.0/none/lib64/libstdc++.so.6(_ZN9__gnu_cxx27__verbose_terminate_handlerEv+0x158)[0x20000b32bd38]
[r233n16:25361] [ 4] /cineca/prod/opt/compilers/gnu/8.4.0/none/lib64/libstdc++.so.6(+0xb6c44)[0x20000b326c44]
[r233n16:25361] [ 5] /cineca/prod/opt/compilers/gnu/8.4.0/none/lib64/libstdc++.so.6(_ZSt9terminatev+0x20)[0x20000b326d00]
[r233n16:25361] [ 6] /cineca/prod/opt/compilers/gnu/8.4.0/none/lib64/libstdc++.so.6(__cxa_throw+0x7c)[0x20000b3271dc]
[r233n16:25361] [ 7] lmp_kokkos_cuda_mpi(_ZN6Kokkos4Impl23throw_runtime_exceptionERKNSt7__cxx1112basic_stringIcSt11char_traitsIcESaIcEEE+0xac)[0x12bd189c]
[r233n16:25361] [ 8] lmp_kokkos_cuda_mpi(_ZN6Kokkos4Impl41safe_throw_allocation_with_header_failureERKNSt7__cxx1112basic_stringIcSt11char_traitsIcESaIcEEES8_RKNS_12Experimental26RawMemoryAllocationFailureE+0x224)[0x12be1654]
[r233n16:25361] [ 9] lmp_kokkos_cuda_mpi(_ZN6Kokkos4Impl30checked_allocation_with_headerINS_9CudaSpaceEEEPNS0_22SharedAllocationHeaderERKT_RKNSt7__cxx1112basic_stringIcSt11char_traitsIcESaIcEEEm+0x80)[0x12be1010]
[r233n16:25361] [10] lmp_kokkos_cuda_mpi(_ZN6Kokkos4Impl22SharedAllocationRecordINS_9CudaSpaceEvEC1ERKS2_RKNSt7__cxx1112basic_stringIcSt11char_traitsIcESaIcEEEmPFvPNS1_IvvEEE+0x4c)[0x12bdd35c]
[r233n16:25361] [11] lmp_kokkos_cuda_mpi(_ZN6Kokkos4ViewIA3_PdJNS_11LayoutRightENS_4CudaEvEEC2INSt7__cxx1112basic_stringIcSt11char_traitsIcESaIcEEEEERKT_NSt9enable_ifIXsrNS_4Impl13is_view_labelISD_EE5valueEKmE4typeEmmmmmmm+0x1c0)[0x10a166b0]
[r233n16:25361] [12] lmp_kokkos_cuda_mpi(_ZN6Kokkos8DualViewIA3_PdNS_11LayoutRightENS_4CudaEvE6resizeEmmmmmmmm+0xf8)[0x10a2b868]
[r233n16:25361] [13] lmp_kokkos_cuda_mpi(_ZN9LAMMPS_NS12MemoryKokkos11grow_kokkosIN6Kokkos8DualViewIA3_PdNS2_11LayoutRightENS2_4CudaEvEEEET_RS9_RPPNS9_10value_typeEiPKc+0x78)[0x10a2c7b8]
[r233n16:25361] [14] lmp_kokkos_cuda_mpi(_ZN9LAMMPS_NS19AtomVecAtomicKokkos4growEi+0x27c)[0x1262e9dc]
[r233n16:25361] [15] lmp_kokkos_cuda_mpi(_ZN9LAMMPS_NS19AtomVecAtomicKokkos20unpack_border_kokkosERKiS2_RKN6Kokkos8DualViewIPPdNS3_11LayoutRightENS3_4CudaEvEENS_14ExecutionSpaceE+0x8c)[0x12629a4c]
[r233n16:25361] [16] lmp_kokkos_cuda_mpi(_ZN9LAMMPS_NS10CommKokkos14borders_deviceIN6Kokkos4CudaEEEvv+0x5b0)[0x11258710]
[r233n16:25361] [17] lmp_kokkos_cuda_mpi(_ZN9LAMMPS_NS10CommKokkos7bordersEv+0x248)[0x1124a798]
[r233n16:25361] [18] lmp_kokkos_cuda_mpi(_ZN9LAMMPS_NS12VerletKokkos5setupEi+0x1d0)[0x12b3e0c0]
[r233n16:25364] [19] lmp_kokkos_cuda_mpi(_ZN9LAMMPS_NS12VerletKokkos5setupEi+0x1d0)[0x12b3e0c0]
[r233n16:25357] [19] lmp_kokkos_cuda_mpi(_ZN9LAMMPS_NS12VerletKokkos5setupEi+0x1d0)[0x12b3e0c0]
[r229n16:99357] [19] lmp_kokkos_cuda_mpi(_ZN9LAMMPS_NS12VerletKokkos5setupEi+0x1d0)[0x12b3e0c0]
[r233n16:25359] [19] lmp_kokkos_cuda_mpi(_ZN9LAMMPS_NS12VerletKokkos5setupEi+0x1d0)[0x12b3e0c0]
[r233n16:25361] [19] lmp_kokkos_cuda_mpi(_ZN9LAMMPS_NS12VerletKokkos5setupEi+0x1d0)[0x12b3e0c0]
[r233n16:25350] [19] lmp_kokkos_cuda_mpi(_ZN9LAMMPS_NS12VerletKokkos5setupEi+0x1d0)[0x12b3e0c0]
[r233n16:25360] [19] lmp_kokkos_cuda_mpi(_ZN9LAMMPS_NS3Run7commandEiPPc+0x14fc)[0x1098148c]
[r233n16:25364] [20] lmp_kokkos_cuda_mpi(_ZN9LAMMPS_NS3Run7commandEiPPc+0x14fc)[0x1098148c]
[r229n16:99357] [20] lmp_kokkos_cuda_mpi(_ZN9LAMMPS_NS3Run7commandEiPPc+0x14fc)[0x1098148c]
[r233n16:25360] [20] lmp_kokkos_cuda_mpi(_ZN9LAMMPS_NS3Run7commandEiPPc+0x14fc)[0x1098148c]
[r233n16:25359] [20] lmp_kokkos_cuda_mpi(_ZN9LAMMPS_NS3Run7commandEiPPc+0x14fc)[0x1098148c]
[r233n16:25361] [20] lmp_kokkos_cuda_mpi(_ZN9LAMMPS_NS3Run7commandEiPPc+0x14fc)[0x1098148c]
[r233n16:25350] [20] lmp_kokkos_cuda_mpi(_ZN9LAMMPS_NS3Run7commandEiPPc+0x14fc)[0x1098148c]
[r233n16:25357] [20] lmp_kokkos_cuda_mpi(_ZN9LAMMPS_NS5Input15execute_commandEv+0x2bf0)[0x1091c6f0]
[r233n16:25360] [21] lmp_kokkos_cuda_mpi(_ZN9LAMMPS_NS5Input15execute_commandEv+0x2bf0)[0x1091c6f0]
[r233n16:25359] [21] lmp_kokkos_cuda_mpi(_ZN9LAMMPS_NS5Input15execute_commandEv+0x2bf0)[0x1091c6f0]
[r229n16:99357] [21] lmp_kokkos_cuda_mpi(_ZN9LAMMPS_NS5Input15execute_commandEv+0x2bf0)[0x1091c6f0]
[r233n16:25361] [21] lmp_kokkos_cuda_mpi(_ZN9LAMMPS_NS5Input15execute_commandEv+0x2bf0)[0x1091c6f0]
[r233n16:25364] [21] lmp_kokkos_cuda_mpi(_ZN9LAMMPS_NS5Input4fileEv+0x2b0)[0x1091d3b0]
[r233n16:25360] [22] lmp_kokkos_cuda_mpi(_ZN9LAMMPS_NS5Input4fileEv+0x2b0)[0x1091d3b0]
[r229n16:99357] [22] lmp_kokkos_cuda_mpi(_ZN9LAMMPS_NS5Input4fileEv+0x2b0)[0x1091d3b0]
[r233n16:25359] [22] lmp_kokkos_cuda_mpi(_ZN9LAMMPS_NS5Input4fileEv+0x2b0)[0x1091d3b0]
[r233n16:25364] [22] lmp_kokkos_cuda_mpi(_ZN9LAMMPS_NS5Input4fileEv+0x2b0)[0x1091d3b0]
[r233n16:25361] [22] lmp_kokkos_cuda_mpi(_ZN9LAMMPS_NS5Input15execute_commandEv+0x2bf0)[0x1091c6f0]
[r233n16:25357] [21] lmp_kokkos_cuda_mpi(_ZN9LAMMPS_NS5Input15execute_commandEv+0x2bf0)[0x1091c6f0]
[r233n16:25350] [21] lmp_kokkos_cuda_mpi(main+0x6c)[0x1086af4c]
[r233n16:25359] [23] /lib64/power9/libc.so.6(+0x241f8)[0x20000bb441f8]
[r233n16:25359] [24] /lib64/power9/libc.so.6(__libc_start_main+0xb4)[0x20000bb443e4]
[r233n16:25359] *** End of error message ***
lmp_kokkos_cuda_mpi(main+0x6c)[0x1086af4c]
[r229n16:99357] [23] /lib64/power9/libc.so.6(+0x241f8)[0x20000bb441f8]
[r229n16:99357] [24] /lib64/power9/libc.so.6(__libc_start_main+0xb4)[0x20000bb443e4]
[r229n16:99357] *** End of error message ***
lmp_kokkos_cuda_mpi(main+0x6c)[0x1086af4c]
[r233n16:25360] [23] /lib64/power9/libc.so.6(+0x241f8)[0x20000bb441f8]
[r233n16:25360] [24] lmp_kokkos_cuda_mpi(main+0x6c)[0x1086af4c]
[r233n16:25364] [23] /lib64/power9/libc.so.6(+0x241f8)[0x20000bb441f8]
[r233n16:25364] [24] /lib64/power9/libc.so.6(__libc_start_main+0xb4)[0x20000bb443e4]
[r233n16:25364] *** End of error message ***
lmp_kokkos_cuda_mpi(main+0x6c)[0x1086af4c]
[r233n16:25361] [23] /lib64/power9/libc.so.6(+0x241f8)[0x20000bb441f8]
[r233n16:25361] [24] /lib64/power9/libc.so.6(__libc_start_main+0xb4)[0x20000bb443e4]
[r233n16:25361] *** End of error message ***
/lib64/power9/libc.so.6(__libc_start_main+0xb4)[0x20000bb443e4]
[r233n16:25360] *** End of error message ***
lmp_kokkos_cuda_mpi(_ZN9LAMMPS_NS5Input4fileEv+0x2b0)[0x1091d3b0]
[r233n16:25357] [22] lmp_kokkos_cuda_mpi(_ZN9LAMMPS_NS5Input4fileEv+0x2b0)[0x1091d3b0]
[r233n16:25350] [22] lmp_kokkos_cuda_mpi(main+0x6c)[0x1086af4c]
[r233n16:25357] [23] /lib64/power9/libc.so.6(+0x241f8)[0x20000bb441f8]
[r233n16:25357] [24] lmp_kokkos_cuda_mpi(main+0x6c)[0x1086af4c]
[r233n16:25350] [23] /lib64/power9/libc.so.6(+0x241f8)[0x20000bb441f8]
[r233n16:25350] [24] /lib64/power9/libc.so.6(__libc_start_main+0xb4)[0x20000bb443e4]
[r233n16:25357] *** End of error message ***
/lib64/power9/libc.so.6(__libc_start_main+0xb4)[0x20000bb443e4]
[r233n16:25350] *** End of error message ***
terminate called after throwing an instance of 'std::runtime_error'
  what():  Kokkos failed to allocate memory for label "atom:f".  Allocation using MemorySpace named "Cuda" failed with the following error:  Allocation of size 78.03 K failed, likely due to insufficient memory.  (The allocation mechanism was cudaMalloc().  The Cuda allocation returned the error code ""cudaErrorMemoryAllocation".)

Traceback functionality not available

[r233n16:25363] *** Process received signal ***
[r233n16:25363] Signal: Aborted (6)
[r233n16:25363] Signal code:  (-6)
[r233n16:25363] [ 0] linux-vdso64.so.1(__kernel_sigtramp_rt64+0x0)[0x2000000504d8]
[r233n16:25363] [ 1] /lib64/power9/libc.so.6(gsignal+0xd8)[0x20000bb63798]
[r233n16:25363] [ 2] /lib64/power9/libc.so.6(abort+0x164)[0x20000bb43bac]
[r233n16:25363] [ 3] /cineca/prod/opt/compilers/gnu/8.4.0/none/lib64/libstdc++.so.6(_ZN9__gnu_cxx27__verbose_terminate_handlerEv+0x158)[0x20000b32bd38]
[r233n16:25363] [ 4] /cineca/prod/opt/compilers/gnu/8.4.0/none/lib64/libstdc++.so.6(+0xb6c44)[0x20000b326c44]
[r233n16:25363] [ 5] /cineca/prod/opt/compilers/gnu/8.4.0/none/lib64/libstdc++.so.6(_ZSt9terminatev+0x20)[0x20000b326d00]
[r233n16:25363] [ 6] /cineca/prod/opt/compilers/gnu/8.4.0/none/lib64/libstdc++.so.6(__cxa_throw+0x7c)[0x20000b3271dc]
[r233n16:25363] [ 7] lmp_kokkos_cuda_mpi(_ZN6Kokkos4Impl23throw_runtime_exceptionERKNSt7__cxx1112basic_stringIcSt11char_traitsIcESaIcEEE+0xac)[0x12bd189c]
[r233n16:25363] [ 8] lmp_kokkos_cuda_mpi(_ZN6Kokkos4Impl41safe_throw_allocation_with_header_failureERKNSt7__cxx1112basic_stringIcSt11char_traitsIcESaIcEEES8_RKNS_12Experimental26RawMemoryAllocationFailureE+0x224)[0x12be1654]
[r233n16:25363] [ 9] lmp_kokkos_cuda_mpi(_ZN6Kokkos4Impl30checked_allocation_with_headerINS_9CudaSpaceEEEPNS0_22SharedAllocationHeaderERKT_RKNSt7__cxx1112basic_stringIcSt11char_traitsIcESaIcEEEm+0x80)[0x12be1010]
[r233n16:25363] [10] lmp_kokkos_cuda_mpi(_ZN6Kokkos4Impl22SharedAllocationRecordINS_9CudaSpaceEvEC1ERKS2_RKNSt7__cxx1112basic_stringIcSt11char_traitsIcESaIcEEEmPFvPNS1_IvvEEE+0x4c)[0x12bdd35c]
[r233n16:25363] [11] lmp_kokkos_cuda_mpi(_ZN6Kokkos4ViewIA3_PdJNS_11LayoutRightENS_4CudaEvEEC2INSt7__cxx1112basic_stringIcSt11char_traitsIcESaIcEEEEERKT_NSt9enable_ifIXsrNS_4Impl13is_view_labelISD_EE5valueEKmE4typeEmmmmmmm+0x1c0)[0x10a166b0]
[r233n16:25363] [12] lmp_kokkos_cuda_mpi(_ZN6Kokkos8DualViewIA3_PdNS_11LayoutRightENS_4CudaEvE6resizeEmmmmmmmm+0xf8)[0x10a2b868]
[r233n16:25363] [13] lmp_kokkos_cuda_mpi(_ZN9LAMMPS_NS12MemoryKokkos11grow_kokkosIN6Kokkos8DualViewIA3_PdNS2_11LayoutRightENS2_4CudaEvEEEET_RS9_RPPNS9_10value_typeEiPKc+0x78)[0x10a2c7b8]
[r233n16:25363] [14] lmp_kokkos_cuda_mpi(_ZN9LAMMPS_NS19AtomVecAtomicKokkos4growEi+0x27c)[0x1262e9dc]
[r233n16:25363] [15] lmp_kokkos_cuda_mpi(_ZN9LAMMPS_NS19AtomVecAtomicKokkos20unpack_border_kokkosERKiS2_RKN6Kokkos8DualViewIPPdNS3_11LayoutRightENS3_4CudaEvEENS_14ExecutionSpaceE+0x8c)[0x12629a4c]
[r233n16:25363] [16] lmp_kokkos_cuda_mpi(_ZN9LAMMPS_NS10CommKokkos14borders_deviceIN6Kokkos4CudaEEEvv+0x5b0)[0x11258710]
[r233n16:25363] [17] lmp_kokkos_cuda_mpi(_ZN9LAMMPS_NS10CommKokkos7bordersEv+0x248)[0x1124a798]
[r233n16:25363] [18] lmp_kokkos_cuda_mpi(_ZN9LAMMPS_NS12VerletKokkos5setupEi+0x1d0)[0x12b3e0c0]
[r233n16:25363] [19] lmp_kokkos_cuda_mpi(_ZN9LAMMPS_NS3Run7commandEiPPc+0x14fc)[0x1098148c]
[r233n16:25363] [20] lmp_kokkos_cuda_mpi(_ZN9LAMMPS_NS5Input15execute_commandEv+0x2bf0)[0x1091c6f0]
[r233n16:25363] [21] lmp_kokkos_cuda_mpi(_ZN9LAMMPS_NS5Input4fileEv+0x2b0)[0x1091d3b0]
[r233n16:25363] [22] lmp_kokkos_cuda_mpi(main+0x6c)[0x1086af4c]
[r233n16:25363] [23] /lib64/power9/libc.so.6(+0x241f8)[0x20000bb441f8]
[r233n16:25363] [24] /lib64/power9/libc.so.6(__libc_start_main+0xb4)[0x20000bb443e4]
[r233n16:25363] *** End of error message ***
terminate called after throwing an instance of 'std::runtime_error'
  what():  Kokkos failed to allocate memory for label "atom:f".  Allocation using MemorySpace named "Cuda" failed with the following error:  Allocation of size 78.03 K failed, likely due to insufficient memory.  (The allocation mechanism was cudaMalloc().  The Cuda allocation returned the error code ""cudaErrorMemoryAllocation".)

Traceback functionality not available

[r233n16:25362] *** Process received signal ***
[r233n16:25362] Signal: Aborted (6)
[r233n16:25362] Signal code:  (-6)
[r233n16:25362] [ 0] linux-vdso64.so.1(__kernel_sigtramp_rt64+0x0)[0x2000000504d8]
[r233n16:25362] [ 1] /lib64/power9/libc.so.6(gsignal+0xd8)[0x20000bb63798]
[r233n16:25362] [ 2] /lib64/power9/libc.so.6(abort+0x164)[0x20000bb43bac]
[r233n16:25362] [ 3] /cineca/prod/opt/compilers/gnu/8.4.0/none/lib64/libstdc++.so.6(_ZN9__gnu_cxx27__verbose_terminate_handlerEv+0x158)[0x20000b32bd38]
[r233n16:25362] [ 4] /cineca/prod/opt/compilers/gnu/8.4.0/none/lib64/libstdc++.so.6(+0xb6c44)[0x20000b326c44]
[r233n16:25362] [ 5] /cineca/prod/opt/compilers/gnu/8.4.0/none/lib64/libstdc++.so.6(_ZSt9terminatev+0x20)[0x20000b326d00]
[r233n16:25362] [ 6] /cineca/prod/opt/compilers/gnu/8.4.0/none/lib64/libstdc++.so.6(__cxa_throw+0x7c)[0x20000b3271dc]
[r233n16:25362] [ 7] lmp_kokkos_cuda_mpi(_ZN6Kokkos4Impl23throw_runtime_exceptionERKNSt7__cxx1112basic_stringIcSt11char_traitsIcESaIcEEE+0xac)[0x12bd189c]
[r233n16:25362] [ 8] lmp_kokkos_cuda_mpi(_ZN6Kokkos4Impl41safe_throw_allocation_with_header_failureERKNSt7__cxx1112basic_stringIcSt11char_traitsIcESaIcEEES8_RKNS_12Experimental26RawMemoryAllocationFailureE+0x224)[0x12be1654]
[r233n16:25362] [ 9] lmp_kokkos_cuda_mpi(_ZN6Kokkos4Impl30checked_allocation_with_headerINS_9CudaSpaceEEEPNS0_22SharedAllocationHeaderERKT_RKNSt7__cxx1112basic_stringIcSt11char_traitsIcESaIcEEEm+0x80)[0x12be1010]
[r233n16:25362] [10] lmp_kokkos_cuda_mpi(_ZN6Kokkos4Impl22SharedAllocationRecordINS_9CudaSpaceEvEC1ERKS2_RKNSt7__cxx1112basic_stringIcSt11char_traitsIcESaIcEEEmPFvPNS1_IvvEEE+0x4c)[0x12bdd35c]
[r233n16:25362] [11] lmp_kokkos_cuda_mpi(_ZN6Kokkos4ViewIA3_PdJNS_11LayoutRightENS_4CudaEvEEC2INSt7__cxx1112basic_stringIcSt11char_traitsIcESaIcEEEEERKT_NSt9enable_ifIXsrNS_4Impl13is_view_labelISD_EE5valueEKmE4typeEmmmmmmm+0x1c0)[0x10a166b0]
[r233n16:25362] [12] lmp_kokkos_cuda_mpi(_ZN6Kokkos8DualViewIA3_PdNS_11LayoutRightENS_4CudaEvE6resizeEmmmmmmmm+0xf8)[0x10a2b868]
[r233n16:25362] [13] lmp_kokkos_cuda_mpi(_ZN9LAMMPS_NS12MemoryKokkos11grow_kokkosIN6Kokkos8DualViewIA3_PdNS2_11LayoutRightENS2_4CudaEvEEEET_RS9_RPPNS9_10value_typeEiPKc+0x78)[0x10a2c7b8]
[r233n16:25362] [14] lmp_kokkos_cuda_mpi(_ZN9LAMMPS_NS19AtomVecAtomicKokkos4growEi+0x27c)[0x1262e9dc]
[r233n16:25362] [15] lmp_kokkos_cuda_mpi(_ZN9LAMMPS_NS19AtomVecAtomicKokkos20unpack_border_kokkosERKiS2_RKN6Kokkos8DualViewIPPdNS3_11LayoutRightENS3_4CudaEvEENS_14ExecutionSpaceE+0x8c)[0x12629a4c]
[r233n16:25362] [16] lmp_kokkos_cuda_mpi(_ZN9LAMMPS_NS10CommKokkos14borders_deviceIN6Kokkos4CudaEEEvv+0x5b0)[0x11258710]
[r233n16:25362] [17] lmp_kokkos_cuda_mpi(_ZN9LAMMPS_NS10CommKokkos7bordersEv+0x248)[0x1124a798]
[r233n16:25362] [18] lmp_kokkos_cuda_mpi(_ZN9LAMMPS_NS12VerletKokkos5setupEi+0x1d0)[0x12b3e0c0]
[r233n16:25362] [19] lmp_kokkos_cuda_mpi(_ZN9LAMMPS_NS3Run7commandEiPPc+0x14fc)[0x1098148c]
[r233n16:25362] [20] lmp_kokkos_cuda_mpi(_ZN9LAMMPS_NS5Input15execute_commandEv+0x2bf0)[0x1091c6f0]
[r233n16:25362] [21] lmp_kokkos_cuda_mpi(_ZN9LAMMPS_NS5Input4fileEv+0x2b0)[0x1091d3b0]
[r233n16:25362] [22] lmp_kokkos_cuda_mpi(main+0x6c)[0x1086af4c]
[r233n16:25362] [23] /lib64/power9/libc.so.6(+0x241f8)[0x20000bb441f8]
[r233n16:25362] [24] /lib64/power9/libc.so.6(__libc_start_main+0xb4)[0x20000bb443e4]
[r233n16:25362] *** End of error message ***
terminate called after throwing an instance of 'std::runtime_error'
  what():  Kokkos failed to allocate memory for label "atom:f".  Allocation using MemorySpace named "Cuda" failed with the following error:  Allocation of size 78.03 K failed, likely due to insufficient memory.  (The allocation mechanism was cudaMalloc().  The Cuda allocation returned the error code ""cudaErrorMemoryAllocation".)

Traceback functionality not available

[r233n16:25339] *** Process received signal ***
[r233n16:25339] Signal: Aborted (6)
[r233n16:25339] Signal code:  (-6)
[r233n16:25339] [ 0] linux-vdso64.so.1(__kernel_sigtramp_rt64+0x0)[0x2000000504d8]
[r233n16:25339] [ 1] /lib64/power9/libc.so.6(gsignal+0xd8)[0x20000bb63798]
[r233n16:25339] [ 2] /lib64/power9/libc.so.6(abort+0x164)[0x20000bb43bac]
[r233n16:25339] [ 3] /cineca/prod/opt/compilers/gnu/8.4.0/none/lib64/libstdc++.so.6(_ZN9__gnu_cxx27__verbose_terminate_handlerEv+0x158)[0x20000b32bd38]
[r233n16:25339] [ 4] /cineca/prod/opt/compilers/gnu/8.4.0/none/lib64/libstdc++.so.6(+0xb6c44)[0x20000b326c44]
[r233n16:25339] [ 5] /cineca/prod/opt/compilers/gnu/8.4.0/none/lib64/libstdc++.so.6(_ZSt9terminatev+0x20)[0x20000b326d00]
[r233n16:25339] [ 6] /cineca/prod/opt/compilers/gnu/8.4.0/none/lib64/libstdc++.so.6(__cxa_throw+0x7c)[0x20000b3271dc]
[r233n16:25339] [ 7] lmp_kokkos_cuda_mpi(_ZN6Kokkos4Impl23throw_runtime_exceptionERKNSt7__cxx1112basic_stringIcSt11char_traitsIcESaIcEEE+0xac)[0x12bd189c]
[r233n16:25339] [ 8] lmp_kokkos_cuda_mpi(_ZN6Kokkos4Impl41safe_throw_allocation_with_header_failureERKNSt7__cxx1112basic_stringIcSt11char_traitsIcESaIcEEES8_RKNS_12Experimental26RawMemoryAllocationFailureE+0x224)[0x12be1654]
[r233n16:25339] [ 9] lmp_kokkos_cuda_mpi(_ZN6Kokkos4Impl30checked_allocation_with_headerINS_9CudaSpaceEEEPNS0_22SharedAllocationHeaderERKT_RKNSt7__cxx1112basic_stringIcSt11char_traitsIcESaIcEEEm+0x80)[0x12be1010]
[r233n16:25339] [10] lmp_kokkos_cuda_mpi(_ZN6Kokkos4Impl22SharedAllocationRecordINS_9CudaSpaceEvEC1ERKS2_RKNSt7__cxx1112basic_stringIcSt11char_traitsIcESaIcEEEmPFvPNS1_IvvEEE+0x4c)[0x12bdd35c]
[r233n16:25339] [11] lmp_kokkos_cuda_mpi(_ZN6Kokkos4ViewIA3_PdJNS_11LayoutRightENS_4CudaEvEEC2INSt7__cxx1112basic_stringIcSt11char_traitsIcESaIcEEEEERKT_NSt9enable_ifIXsrNS_4Impl13is_view_labelISD_EE5valueEKmE4typeEmmmmmmm+0x1c0)[0x10a166b0]
[r233n16:25339] [12] lmp_kokkos_cuda_mpi(_ZN6Kokkos8DualViewIA3_PdNS_11LayoutRightENS_4CudaEvE6resizeEmmmmmmmm+0xf8)[0x10a2b868]
[r233n16:25339] [13] lmp_kokkos_cuda_mpi(_ZN9LAMMPS_NS12MemoryKokkos11grow_kokkosIN6Kokkos8DualViewIA3_PdNS2_11LayoutRightENS2_4CudaEvEEEET_RS9_RPPNS9_10value_typeEiPKc+0x78)[0x10a2c7b8]
[r233n16:25339] [14] lmp_kokkos_cuda_mpi(_ZN9LAMMPS_NS19AtomVecAtomicKokkos4growEi+0x27c)[0x1262e9dc]
[r233n16:25339] [15] lmp_kokkos_cuda_mpi(_ZN9LAMMPS_NS19AtomVecAtomicKokkos20unpack_border_kokkosERKiS2_RKN6Kokkos8DualViewIPPdNS3_11LayoutRightENS3_4CudaEvEENS_14ExecutionSpaceE+0x8c)[0x12629a4c]
[r233n16:25339] [16] lmp_kokkos_cuda_mpi(_ZN9LAMMPS_NS10CommKokkos14borders_deviceIN6Kokkos4CudaEEEvv+0x5b0)[0x11258710]
[r233n16:25339] [17] lmp_kokkos_cuda_mpi(_ZN9LAMMPS_NS10CommKokkos7bordersEv+0x248)[0x1124a798]
[r233n16:25339] [18] lmp_kokkos_cuda_mpi(_ZN9LAMMPS_NS12VerletKokkos5setupEi+0x1d0)[0x12b3e0c0]
[r233n16:25339] [19] lmp_kokkos_cuda_mpi(_ZN9LAMMPS_NS3Run7commandEiPPc+0x14fc)[0x1098148c]
[r233n16:25339] [20] lmp_kokkos_cuda_mpi(_ZN9LAMMPS_NS5Input15execute_commandEv+0x2bf0)[0x1091c6f0]
[r233n16:25339] [21] lmp_kokkos_cuda_mpi(_ZN9LAMMPS_NS5Input4fileEv+0x2b0)[0x1091d3b0]
[r233n16:25339] [22] lmp_kokkos_cuda_mpi(main+0x6c)[0x1086af4c]
[r233n16:25339] [23] /lib64/power9/libc.so.6(+0x241f8)[0x20000bb441f8]
[r233n16:25339] [24] /lib64/power9/libc.so.6(__libc_start_main+0xb4)[0x20000bb443e4]
[r233n16:25339] *** End of error message ***
terminate called after throwing an instance of 'std::runtime_error'
  what():  Kokkos failed to allocate memory for label "atom:f".  Allocation using MemorySpace named "Cuda" failed with the following error:  Allocation of size 78.03 K failed, likely due to insufficient memory.  (The allocation mechanism was cudaMalloc().  The Cuda allocation returned the error code ""cudaErrorMemoryAllocation".)

Traceback functionality not available

[r229n16:99355] *** Process received signal ***
[r229n16:99355] Signal: Aborted (6)
[r229n16:99355] Signal code:  (-6)
[r229n16:99355] [ 0] linux-vdso64.so.1(__kernel_sigtramp_rt64+0x0)[0x2000000504d8]
[r229n16:99355] [ 1] /lib64/power9/libc.so.6(gsignal+0xd8)[0x20000bb63798]
[r229n16:99355] [ 2] /lib64/power9/libc.so.6(abort+0x164)[0x20000bb43bac]
[r229n16:99355] [ 3] /cineca/prod/opt/compilers/gnu/8.4.0/none/lib64/libstdc++.so.6(_ZN9__gnu_cxx27__verbose_terminate_handlerEv+0x158)[0x20000b32bd38]
[r229n16:99355] [ 4] /cineca/prod/opt/compilers/gnu/8.4.0/none/lib64/libstdc++.so.6(+0xb6c44)[0x20000b326c44]
[r229n16:99355] [ 5] /cineca/prod/opt/compilers/gnu/8.4.0/none/lib64/libstdc++.so.6(_ZSt9terminatev+0x20)[0x20000b326d00]
[r229n16:99355] [ 6] /cineca/prod/opt/compilers/gnu/8.4.0/none/lib64/libstdc++.so.6(__cxa_throw+0x7c)[0x20000b3271dc]
[r229n16:99355] [ 7] lmp_kokkos_cuda_mpi(_ZN6Kokkos4Impl23throw_runtime_exceptionERKNSt7__cxx1112basic_stringIcSt11char_traitsIcESaIcEEE+0xac)[0x12bd189c]
[r229n16:99355] [ 8] lmp_kokkos_cuda_mpi(_ZN6Kokkos4Impl41safe_throw_allocation_with_header_failureERKNSt7__cxx1112basic_stringIcSt11char_traitsIcESaIcEEES8_RKNS_12Experimental26RawMemoryAllocationFailureE+0x224)[0x12be1654]
[r229n16:99355] [ 9] lmp_kokkos_cuda_mpi(_ZN6Kokkos4Impl30checked_allocation_with_headerINS_9CudaSpaceEEEPNS0_22SharedAllocationHeaderERKT_RKNSt7__cxx1112basic_stringIcSt11char_traitsIcESaIcEEEm+0x80)[0x12be1010]
[r229n16:99355] [10] lmp_kokkos_cuda_mpi(_ZN6Kokkos4Impl22SharedAllocationRecordINS_9CudaSpaceEvEC1ERKS2_RKNSt7__cxx1112basic_stringIcSt11char_traitsIcESaIcEEEmPFvPNS1_IvvEEE+0x4c)[0x12bdd35c]
[r229n16:99355] [11] lmp_kokkos_cuda_mpi(_ZN6Kokkos4ViewIA3_PdJNS_11LayoutRightENS_4CudaEvEEC2INSt7__cxx1112basic_stringIcSt11char_traitsIcESaIcEEEEERKT_NSt9enable_ifIXsrNS_4Impl13is_view_labelISD_EE5valueEKmE4typeEmmmmmmm+0x1c0)[0x10a166b0]
[r229n16:99355] [12] lmp_kokkos_cuda_mpi(_ZN6Kokkos8DualViewIA3_PdNS_11LayoutRightENS_4CudaEvE6resizeEmmmmmmmm+0xf8)[0x10a2b868]
[r229n16:99355] [13] lmp_kokkos_cuda_mpi(_ZN9LAMMPS_NS12MemoryKokkos11grow_kokkosIN6Kokkos8DualViewIA3_PdNS2_11LayoutRightENS2_4CudaEvEEEET_RS9_RPPNS9_10value_typeEiPKc+0x78)[0x10a2c7b8]
[r229n16:99355] [14] lmp_kokkos_cuda_mpi(_ZN9LAMMPS_NS19AtomVecAtomicKokkos4growEi+0x27c)[0x1262e9dc]
[r229n16:99355] [15] lmp_kokkos_cuda_mpi(_ZN9LAMMPS_NS19AtomVecAtomicKokkos20unpack_border_kokkosERKiS2_RKN6Kokkos8DualViewIPPdNS3_11LayoutRightENS3_4CudaEvEENS_14ExecutionSpaceE+0x8c)[0x12629a4c]
[r229n16:99355] [16] lmp_kokkos_cuda_mpi(_ZN9LAMMPS_NS10CommKokkos14borders_deviceIN6Kokkos4CudaEEEvv+0x5b0)[0x11258710]
[r229n16:99355] [17] lmp_kokkos_cuda_mpi(_ZN9LAMMPS_NS10CommKokkos7bordersEv+0x248)[0x1124a798]
[r229n16:99355] [18] lmp_kokkos_cuda_mpi(_ZN9LAMMPS_NS12VerletKokkos5setupEi+0x1d0)[0x12b3e0c0]
[r229n16:99355] [19] lmp_kokkos_cuda_mpi(_ZN9LAMMPS_NS3Run7commandEiPPc+0x14fc)[0x1098148c]
[r229n16:99355] [20] lmp_kokkos_cuda_mpi(_ZN9LAMMPS_NS5Input15execute_commandEv+0x2bf0)[0x1091c6f0]
[r229n16:99355] [21] lmp_kokkos_cuda_mpi(_ZN9LAMMPS_NS5Input4fileEv+0x2b0)[0x1091d3b0]
[r229n16:99355] [22] lmp_kokkos_cuda_mpi(main+0x6c)[0x1086af4c]
[r229n16:99355] [23] /lib64/power9/libc.so.6(+0x241f8)[0x20000bb441f8]
[r229n16:99355] [24] /lib64/power9/libc.so.6(__libc_start_main+0xb4)[0x20000bb443e4]
[r229n16:99355] *** End of error message ***
terminate called after throwing an instance of 'std::runtime_error'
  what():  Kokkos failed to allocate memory for label "atom:f".  Allocation using MemorySpace named "Cuda" failed with the following error:  Allocation of size 78.03 K failed, likely due to insufficient memory.  (The allocation mechanism was cudaMalloc().  The Cuda allocation returned the error code ""cudaErrorMemoryAllocation".)

Traceback functionality not available

[r229n16:99354] *** Process received signal ***
[r229n16:99354] Signal: Aborted (6)
[r229n16:99354] Signal code:  (-6)
[r229n16:99354] [ 0] linux-vdso64.so.1(__kernel_sigtramp_rt64+0x0)[0x2000000504d8]
[r229n16:99354] [ 1] /lib64/power9/libc.so.6(gsignal+0xd8)[0x20000bb63798]
[r229n16:99354] [ 2] /lib64/power9/libc.so.6(abort+0x164)[0x20000bb43bac]
[r229n16:99354] [ 3] /cineca/prod/opt/compilers/gnu/8.4.0/none/lib64/libstdc++.so.6(_ZN9__gnu_cxx27__verbose_terminate_handlerEv+0x158)[0x20000b32bd38]
[r229n16:99354] [ 4] /cineca/prod/opt/compilers/gnu/8.4.0/none/lib64/libstdc++.so.6(+0xb6c44)[0x20000b326c44]
[r229n16:99354] [ 5] /cineca/prod/opt/compilers/gnu/8.4.0/none/lib64/libstdc++.so.6(_ZSt9terminatev+0x20)[0x20000b326d00]
[r229n16:99354] [ 6] /cineca/prod/opt/compilers/gnu/8.4.0/none/lib64/libstdc++.so.6(__cxa_throw+0x7c)[0x20000b3271dc]
[r229n16:99354] [ 7] lmp_kokkos_cuda_mpi(_ZN6Kokkos4Impl23throw_runtime_exceptionERKNSt7__cxx1112basic_stringIcSt11char_traitsIcESaIcEEE+0xac)[0x12bd189c]
[r229n16:99354] [ 8] lmp_kokkos_cuda_mpi(_ZN6Kokkos4Impl41safe_throw_allocation_with_header_failureERKNSt7__cxx1112basic_stringIcSt11char_traitsIcESaIcEEES8_RKNS_12Experimental26RawMemoryAllocationFailureE+0x224)[0x12be1654]
[r229n16:99354] [ 9] lmp_kokkos_cuda_mpi(_ZN6Kokkos4Impl30checked_allocation_with_headerINS_9CudaSpaceEEEPNS0_22SharedAllocationHeaderERKT_RKNSt7__cxx1112basic_stringIcSt11char_traitsIcESaIcEEEm+0x80)[0x12be1010]
[r229n16:99354] [10] lmp_kokkos_cuda_mpi(_ZN6Kokkos4Impl22SharedAllocationRecordINS_9CudaSpaceEvEC1ERKS2_RKNSt7__cxx1112basic_stringIcSt11char_traitsIcESaIcEEEmPFvPNS1_IvvEEE+0x4c)[0x12bdd35c]
[r229n16:99354] [11] lmp_kokkos_cuda_mpi(_ZN6Kokkos4ViewIA3_PdJNS_11LayoutRightENS_4CudaEvEEC2INSt7__cxx1112basic_stringIcSt11char_traitsIcESaIcEEEEERKT_NSt9enable_ifIXsrNS_4Impl13is_view_labelISD_EE5valueEKmE4typeEmmmmmmm+0x1c0)[0x10a166b0]
[r229n16:99354] [12] lmp_kokkos_cuda_mpi(_ZN6Kokkos8DualViewIA3_PdNS_11LayoutRightENS_4CudaEvE6resizeEmmmmmmmm+0xf8)[0x10a2b868]
[r229n16:99354] [13] lmp_kokkos_cuda_mpi(_ZN9LAMMPS_NS12MemoryKokkos11grow_kokkosIN6Kokkos8DualViewIA3_PdNS2_11LayoutRightENS2_4CudaEvEEEET_RS9_RPPNS9_10value_typeEiPKc+0x78)[0x10a2c7b8]
[r229n16:99354] [14] lmp_kokkos_cuda_mpi(_ZN9LAMMPS_NS19AtomVecAtomicKokkos4growEi+0x27c)[0x1262e9dc]
[r229n16:99354] [15] lmp_kokkos_cuda_mpi(_ZN9LAMMPS_NS19AtomVecAtomicKokkos20unpack_border_kokkosERKiS2_RKN6Kokkos8DualViewIPPdNS3_11LayoutRightENS3_4CudaEvEENS_14ExecutionSpaceE+0x8c)[0x12629a4c]
[r229n16:99354] [16] lmp_kokkos_cuda_mpi(_ZN9LAMMPS_NS10CommKokkos14borders_deviceIN6Kokkos4CudaEEEvv+0x5b0)[0x11258710]
[r229n16:99354] [17] lmp_kokkos_cuda_mpi(_ZN9LAMMPS_NS10CommKokkos7bordersEv+0x248)[0x1124a798]
[r229n16:99354] [18] lmp_kokkos_cuda_mpi(_ZN9LAMMPS_NS12VerletKokkos5setupEi+0x1d0)[0x12b3e0c0]
[r229n16:99354] [19] lmp_kokkos_cuda_mpi(_ZN9LAMMPS_NS3Run7commandEiPPc+0x14fc)[0x1098148c]
[r229n16:99354] [20] lmp_kokkos_cuda_mpi(_ZN9LAMMPS_NS5Input15execute_commandEv+0x2bf0)[0x1091c6f0]
[r229n16:99354] [21] lmp_kokkos_cuda_mpi(_ZN9LAMMPS_NS5Input4fileEv+0x2b0)[0x1091d3b0]
[r229n16:99354] [22] lmp_kokkos_cuda_mpi(main+0x6c)[0x1086af4c]
[r229n16:99354] [23] /lib64/power9/libc.so.6(+0x241f8)[0x20000bb441f8]
[r229n16:99354] [24] /lib64/power9/libc.so.6(__libc_start_main+0xb4)[0x20000bb443e4]
[r229n16:99354] *** End of error message ***
terminate called after throwing an instance of 'std::runtime_error'
  what():  Kokkos failed to allocate memory for label "atom:f".  Allocation using MemorySpace named "Cuda" failed with the following error:  Allocation of size 78.03 K failed, likely due to insufficient memory.  (The allocation mechanism was cudaMalloc().  The Cuda allocation returned the error code ""cudaErrorMemoryAllocation".)

Traceback functionality not available

[r229n16:99356] *** Process received signal ***
[r229n16:99356] Signal: Aborted (6)
[r229n16:99356] Signal code:  (-6)
[r229n16:99356] [ 0] linux-vdso64.so.1(__kernel_sigtramp_rt64+0x0)[0x2000000504d8]
[r229n16:99356] [ 1] /lib64/power9/libc.so.6(gsignal+0xd8)[0x20000bb63798]
[r229n16:99356] [ 2] /lib64/power9/libc.so.6(abort+0x164)[0x20000bb43bac]
[r229n16:99356] [ 3] /cineca/prod/opt/compilers/gnu/8.4.0/none/lib64/libstdc++.so.6(_ZN9__gnu_cxx27__verbose_terminate_handlerEv+0x158)[0x20000b32bd38]
[r229n16:99356] [ 4] /cineca/prod/opt/compilers/gnu/8.4.0/none/lib64/libstdc++.so.6(+0xb6c44)[0x20000b326c44]
[r229n16:99356] [ 5] /cineca/prod/opt/compilers/gnu/8.4.0/none/lib64/libstdc++.so.6(_ZSt9terminatev+0x20)[0x20000b326d00]
[r229n16:99356] [ 6] /cineca/prod/opt/compilers/gnu/8.4.0/none/lib64/libstdc++.so.6(__cxa_throw+0x7c)[0x20000b3271dc]
[r229n16:99356] [ 7] lmp_kokkos_cuda_mpi(_ZN6Kokkos4Impl23throw_runtime_exceptionERKNSt7__cxx1112basic_stringIcSt11char_traitsIcESaIcEEE+0xac)[0x12bd189c]
[r229n16:99356] [ 8] lmp_kokkos_cuda_mpi(_ZN6Kokkos4Impl41safe_throw_allocation_with_header_failureERKNSt7__cxx1112basic_stringIcSt11char_traitsIcESaIcEEES8_RKNS_12Experimental26RawMemoryAllocationFailureE+0x224)[0x12be1654]
[r229n16:99356] [ 9] lmp_kokkos_cuda_mpi(_ZN6Kokkos4Impl30checked_allocation_with_headerINS_9CudaSpaceEEEPNS0_22SharedAllocationHeaderERKT_RKNSt7__cxx1112basic_stringIcSt11char_traitsIcESaIcEEEm+0x80)[0x12be1010]
[r229n16:99356] [10] lmp_kokkos_cuda_mpi(_ZN6Kokkos4Impl22SharedAllocationRecordINS_9CudaSpaceEvEC1ERKS2_RKNSt7__cxx1112basic_stringIcSt11char_traitsIcESaIcEEEmPFvPNS1_IvvEEE+0x4c)[0x12bdd35c]
[r229n16:99356] [11] lmp_kokkos_cuda_mpi(_ZN6Kokkos4ViewIA3_PdJNS_11LayoutRightENS_4CudaEvEEC2INSt7__cxx1112basic_stringIcSt11char_traitsIcESaIcEEEEERKT_NSt9enable_ifIXsrNS_4Impl13is_view_labelISD_EE5valueEKmE4typeEmmmmmmm+0x1c0)[0x10a166b0]
[r229n16:99356] [12] lmp_kokkos_cuda_mpi(_ZN6Kokkos8DualViewIA3_PdNS_11LayoutRightENS_4CudaEvE6resizeEmmmmmmmm+0xf8)[0x10a2b868]
[r229n16:99356] [13] lmp_kokkos_cuda_mpi(_ZN9LAMMPS_NS12MemoryKokkos11grow_kokkosIN6Kokkos8DualViewIA3_PdNS2_11LayoutRightENS2_4CudaEvEEEET_RS9_RPPNS9_10value_typeEiPKc+0x78)[0x10a2c7b8]
[r229n16:99356] [14] lmp_kokkos_cuda_mpi(_ZN9LAMMPS_NS19AtomVecAtomicKokkos4growEi+0x27c)[0x1262e9dc]
[r229n16:99356] [15] lmp_kokkos_cuda_mpi(_ZN9LAMMPS_NS19AtomVecAtomicKokkos20unpack_border_kokkosERKiS2_RKN6Kokkos8DualViewIPPdNS3_11LayoutRightENS3_4CudaEvEENS_14ExecutionSpaceE+0x8c)[0x12629a4c]
[r229n16:99356] [16] lmp_kokkos_cuda_mpi(_ZN9LAMMPS_NS10CommKokkos14borders_deviceIN6Kokkos4CudaEEEvv+0x5b0)[0x11258710]
[r229n16:99356] [17] lmp_kokkos_cuda_mpi(_ZN9LAMMPS_NS10CommKokkos7bordersEv+0x248)[0x1124a798]
[r229n16:99356] [18] lmp_kokkos_cuda_mpi(_ZN9LAMMPS_NS12VerletKokkos5setupEi+0x1d0)[0x12b3e0c0]
[r229n16:99356] [19] lmp_kokkos_cuda_mpi(_ZN9LAMMPS_NS3Run7commandEiPPc+0x14fc)[0x1098148c]
[r229n16:99356] [20] lmp_kokkos_cuda_mpi(_ZN9LAMMPS_NS5Input15execute_commandEv+0x2bf0)[0x1091c6f0]
[r229n16:99356] [21] lmp_kokkos_cuda_mpi(_ZN9LAMMPS_NS5Input4fileEv+0x2b0)[0x1091d3b0]
[r229n16:99356] [22] lmp_kokkos_cuda_mpi(main+0x6c)[0x1086af4c]
[r229n16:99356] [23] /lib64/power9/libc.so.6(+0x241f8)[0x20000bb441f8]
[r229n16:99356] [24] /lib64/power9/libc.so.6(__libc_start_main+0xb4)[0x20000bb443e4]
[r229n16:99356] *** End of error message ***
terminate called after throwing an instance of 'std::runtime_error'
  what():  Kokkos failed to allocate memory for label "atom:f".  Allocation using MemorySpace named "Cuda" failed with the following error:  Allocation of size 78.03 K failed, likely due to insufficient memory.  (The allocation mechanism was cudaMalloc().  The Cuda allocation returned the error code ""cudaErrorMemoryAllocation".)

Traceback functionality not available

[r233n16:25337] *** Process received signal ***
[r233n16:25337] Signal: Aborted (6)
[r233n16:25337] Signal code:  (-6)
[r233n16:25337] [ 0] linux-vdso64.so.1(__kernel_sigtramp_rt64+0x0)[0x2000000504d8]
[r233n16:25337] [ 1] /lib64/power9/libc.so.6(gsignal+0xd8)[0x20000bb63798]
[r233n16:25337] [ 2] /lib64/power9/libc.so.6(abort+0x164)[0x20000bb43bac]
[r233n16:25337] [ 3] /cineca/prod/opt/compilers/gnu/8.4.0/none/lib64/libstdc++.so.6(_ZN9__gnu_cxx27__verbose_terminate_handlerEv+0x158)[0x20000b32bd38]
[r233n16:25337] [ 4] /cineca/prod/opt/compilers/gnu/8.4.0/none/lib64/libstdc++.so.6(+0xb6c44)[0x20000b326c44]
[r233n16:25337] [ 5] /cineca/prod/opt/compilers/gnu/8.4.0/none/lib64/libstdc++.so.6(_ZSt9terminatev+0x20)[0x20000b326d00]
[r233n16:25337] [ 6] /cineca/prod/opt/compilers/gnu/8.4.0/none/lib64/libstdc++.so.6(__cxa_throw+0x7c)[0x20000b3271dc]
[r233n16:25337] [ 7] lmp_kokkos_cuda_mpi(_ZN6Kokkos4Impl23throw_runtime_exceptionERKNSt7__cxx1112basic_stringIcSt11char_traitsIcESaIcEEE+0xac)[0x12bd189c]
[r233n16:25337] [ 8] lmp_kokkos_cuda_mpi(_ZN6Kokkos4Impl41safe_throw_allocation_with_header_failureERKNSt7__cxx1112basic_stringIcSt11char_traitsIcESaIcEEES8_RKNS_12Experimental26RawMemoryAllocationFailureE+0x224)[0x12be1654]
[r233n16:25337] [ 9] lmp_kokkos_cuda_mpi(_ZN6Kokkos4Impl30checked_allocation_with_headerINS_9CudaSpaceEEEPNS0_22SharedAllocationHeaderERKT_RKNSt7__cxx1112basic_stringIcSt11char_traitsIcESaIcEEEm+0x80)[0x12be1010]
[r233n16:25337] [10] lmp_kokkos_cuda_mpi(_ZN6Kokkos4Impl22SharedAllocationRecordINS_9CudaSpaceEvEC1ERKS2_RKNSt7__cxx1112basic_stringIcSt11char_traitsIcESaIcEEEmPFvPNS1_IvvEEE+0x4c)[0x12bdd35c]
[r233n16:25337] [11] lmp_kokkos_cuda_mpi(_ZN6Kokkos4ViewIA3_PdJNS_11LayoutRightENS_4CudaEvEEC2INSt7__cxx1112basic_stringIcSt11char_traitsIcESaIcEEEEERKT_NSt9enable_ifIXsrNS_4Impl13is_view_labelISD_EE5valueEKmE4typeEmmmmmmm+0x1c0)[0x10a166b0]
[r233n16:25337] [12] lmp_kokkos_cuda_mpi(_ZN6Kokkos8DualViewIA3_PdNS_11LayoutRightENS_4CudaEvE6resizeEmmmmmmmm+0xf8)[0x10a2b868]
[r233n16:25337] [13] lmp_kokkos_cuda_mpi(_ZN9LAMMPS_NS12MemoryKokkos11grow_kokkosIN6Kokkos8DualViewIA3_PdNS2_11LayoutRightENS2_4CudaEvEEEET_RS9_RPPNS9_10value_typeEiPKc+0x78)[0x10a2c7b8]
[r233n16:25337] [14] lmp_kokkos_cuda_mpi(_ZN9LAMMPS_NS19AtomVecAtomicKokkos4growEi+0x27c)[0x1262e9dc]
[r233n16:25337] [15] lmp_kokkos_cuda_mpi(_ZN9LAMMPS_NS19AtomVecAtomicKokkos20unpack_border_kokkosERKiS2_RKN6Kokkos8DualViewIPPdNS3_11LayoutRightENS3_4CudaEvEENS_14ExecutionSpaceE+0x8c)[0x12629a4c]
[r233n16:25337] [16] lmp_kokkos_cuda_mpi(_ZN9LAMMPS_NS10CommKokkos14borders_deviceIN6Kokkos4CudaEEEvv+0x5b0)[0x11258710]
[r233n16:25337] [17] lmp_kokkos_cuda_mpi(_ZN9LAMMPS_NS10CommKokkos7bordersEv+0x248)[0x1124a798]
[r233n16:25337] [18] lmp_kokkos_cuda_mpi(_ZN9LAMMPS_NS12VerletKokkos5setupEi+0x1d0)[0x12b3e0c0]
[r233n16:25337] [19] lmp_kokkos_cuda_mpi(_ZN9LAMMPS_NS3Run7commandEiPPc+0x14fc)[0x1098148c]
[r233n16:25337] [20] lmp_kokkos_cuda_mpi(_ZN9LAMMPS_NS5Input15execute_commandEv+0x2bf0)[0x1091c6f0]
[r233n16:25337] [21] lmp_kokkos_cuda_mpi(_ZN9LAMMPS_NS5Input4fileEv+0x2b0)[0x1091d3b0]
[r233n16:25337] [22] lmp_kokkos_cuda_mpi(main+0x6c)[0x1086af4c]
[r233n16:25337] [23] /lib64/power9/libc.so.6(+0x241f8)[0x20000bb441f8]
[r233n16:25337] [24] /lib64/power9/libc.so.6(__libc_start_main+0xb4)[0x20000bb443e4]
[r233n16:25337] *** End of error message ***
terminate called after throwing an instance of 'std::runtime_error'
  what():  Kokkos failed to allocate memory for label "atom:f".  Allocation using MemorySpace named "Cuda" failed with the following error:  Allocation of size 78.03 K failed, likely due to insufficient memory.  (The allocation mechanism was cudaMalloc().  The Cuda allocation returned the error code ""cudaErrorMemoryAllocation".)

Traceback functionality not available

[r233n16:25338] *** Process received signal ***
[r233n16:25338] Signal: Aborted (6)
[r233n16:25338] Signal code:  (-6)
[r233n16:25338] [ 0] linux-vdso64.so.1(__kernel_sigtramp_rt64+0x0)[0x2000000504d8]
[r233n16:25338] [ 1] /lib64/power9/libc.so.6(gsignal+0xd8)[0x20000bb63798]
[r233n16:25338] [ 2] /lib64/power9/libc.so.6(abort+0x164)[0x20000bb43bac]
[r233n16:25338] [ 3] /cineca/prod/opt/compilers/gnu/8.4.0/none/lib64/libstdc++.so.6(_ZN9__gnu_cxx27__verbose_terminate_handlerEv+0x158)[0x20000b32bd38]
[r233n16:25338] [ 4] /cineca/prod/opt/compilers/gnu/8.4.0/none/lib64/libstdc++.so.6(+0xb6c44)[0x20000b326c44]
[r233n16:25338] [ 5] /cineca/prod/opt/compilers/gnu/8.4.0/none/lib64/libstdc++.so.6(_ZSt9terminatev+0x20)[0x20000b326d00]
[r233n16:25338] [ 6] /cineca/prod/opt/compilers/gnu/8.4.0/none/lib64/libstdc++.so.6(__cxa_throw+0x7c)[0x20000b3271dc]
[r233n16:25338] [ 7] lmp_kokkos_cuda_mpi(_ZN6Kokkos4Impl23throw_runtime_exceptionERKNSt7__cxx1112basic_stringIcSt11char_traitsIcESaIcEEE+0xac)[0x12bd189c]
[r233n16:25338] [ 8] lmp_kokkos_cuda_mpi(_ZN6Kokkos4Impl41safe_throw_allocation_with_header_failureERKNSt7__cxx1112basic_stringIcSt11char_traitsIcESaIcEEES8_RKNS_12Experimental26RawMemoryAllocationFailureE+0x224)[0x12be1654]
[r233n16:25338] [ 9] lmp_kokkos_cuda_mpi(_ZN6Kokkos4Impl30checked_allocation_with_headerINS_9CudaSpaceEEEPNS0_22SharedAllocationHeaderERKT_RKNSt7__cxx1112basic_stringIcSt11char_traitsIcESaIcEEEm+0x80)[0x12be1010]
[r233n16:25338] [10] lmp_kokkos_cuda_mpi(_ZN6Kokkos4Impl22SharedAllocationRecordINS_9CudaSpaceEvEC1ERKS2_RKNSt7__cxx1112basic_stringIcSt11char_traitsIcESaIcEEEmPFvPNS1_IvvEEE+0x4c)[0x12bdd35c]
[r233n16:25338] [11] lmp_kokkos_cuda_mpi(_ZN6Kokkos4ViewIA3_PdJNS_11LayoutRightENS_4CudaEvEEC2INSt7__cxx1112basic_stringIcSt11char_traitsIcESaIcEEEEERKT_NSt9enable_ifIXsrNS_4Impl13is_view_labelISD_EE5valueEKmE4typeEmmmmmmm+0x1c0)[0x10a166b0]
[r233n16:25338] [12] lmp_kokkos_cuda_mpi(_ZN6Kokkos8DualViewIA3_PdNS_11LayoutRightENS_4CudaEvE6resizeEmmmmmmmm+0xf8)[0x10a2b868]
[r233n16:25338] [13] lmp_kokkos_cuda_mpi(_ZN9LAMMPS_NS12MemoryKokkos11grow_kokkosIN6Kokkos8DualViewIA3_PdNS2_11LayoutRightENS2_4CudaEvEEEET_RS9_RPPNS9_10value_typeEiPKc+0x78)[0x10a2c7b8]
[r233n16:25338] [14] lmp_kokkos_cuda_mpi(_ZN9LAMMPS_NS19AtomVecAtomicKokkos4growEi+0x27c)[0x1262e9dc]
[r233n16:25338] [15] lmp_kokkos_cuda_mpi(_ZN9LAMMPS_NS19AtomVecAtomicKokkos20unpack_border_kokkosERKiS2_RKN6Kokkos8DualViewIPPdNS3_11LayoutRightENS3_4CudaEvEENS_14ExecutionSpaceE+0x8c)[0x12629a4c]
[r233n16:25338] [16] lmp_kokkos_cuda_mpi(_ZN9LAMMPS_NS10CommKokkos14borders_deviceIN6Kokkos4CudaEEEvv+0x5b0)[0x11258710]
[r233n16:25338] [17] lmp_kokkos_cuda_mpi(_ZN9LAMMPS_NS10CommKokkos7bordersEv+0x248)[0x1124a798]
[r233n16:25338] [18] lmp_kokkos_cuda_mpi(_ZN9LAMMPS_NS12VerletKokkos5setupEi+0x1d0)[0x12b3e0c0]
[r233n16:25338] [19] lmp_kokkos_cuda_mpi(_ZN9LAMMPS_NS3Run7commandEiPPc+0x14fc)[0x1098148c]
[r233n16:25338] [20] lmp_kokkos_cuda_mpi(_ZN9LAMMPS_NS5Input15execute_commandEv+0x2bf0)[0x1091c6f0]
[r233n16:25338] [21] lmp_kokkos_cuda_mpi(_ZN9LAMMPS_NS5Input4fileEv+0x2b0)[0x1091d3b0]
[r233n16:25338] [22] lmp_kokkos_cuda_mpi(main+0x6c)[0x1086af4c]
[r233n16:25338] [23] /lib64/power9/libc.so.6(+0x241f8)[0x20000bb441f8]
[r233n16:25338] [24] /lib64/power9/libc.so.6(__libc_start_main+0xb4)[0x20000bb443e4]
[r233n16:25338] *** End of error message ***
terminate called after throwing an instance of 'std::runtime_error'
  what():  Kokkos failed to allocate memory for label "atom:f".  Allocation using MemorySpace named "Cuda" failed with the following error:  Allocation of size 78.03 K failed, likely due to insufficient memory.  (The allocation mechanism was cudaMalloc().  The Cuda allocation returned the error code ""cudaErrorMemoryAllocation".)

Traceback functionality not available

[r233n16:25340] *** Process received signal ***
[r233n16:25340] Signal: Aborted (6)
[r233n16:25340] Signal code:  (-6)
[r233n16:25340] [ 0] linux-vdso64.so.1(__kernel_sigtramp_rt64+0x0)[0x2000000504d8]
[r233n16:25340] [ 1] /lib64/power9/libc.so.6(gsignal+0xd8)[0x20000bb63798]
[r233n16:25340] [ 2] /lib64/power9/libc.so.6(abort+0x164)[0x20000bb43bac]
[r233n16:25340] [ 3] /cineca/prod/opt/compilers/gnu/8.4.0/none/lib64/libstdc++.so.6(_ZN9__gnu_cxx27__verbose_terminate_handlerEv+0x158)[0x20000b32bd38]
[r233n16:25340] [ 4] /cineca/prod/opt/compilers/gnu/8.4.0/none/lib64/libstdc++.so.6(+0xb6c44)[0x20000b326c44]
[r233n16:25340] [ 5] /cineca/prod/opt/compilers/gnu/8.4.0/none/lib64/libstdc++.so.6(_ZSt9terminatev+0x20)[0x20000b326d00]
[r233n16:25340] [ 6] /cineca/prod/opt/compilers/gnu/8.4.0/none/lib64/libstdc++.so.6(__cxa_throw+0x7c)[0x20000b3271dc]
[r233n16:25340] [ 7] lmp_kokkos_cuda_mpi(_ZN6Kokkos4Impl23throw_runtime_exceptionERKNSt7__cxx1112basic_stringIcSt11char_traitsIcESaIcEEE+0xac)[0x12bd189c]
[r233n16:25340] [ 8] lmp_kokkos_cuda_mpi(_ZN6Kokkos4Impl41safe_throw_allocation_with_header_failureERKNSt7__cxx1112basic_stringIcSt11char_traitsIcESaIcEEES8_RKNS_12Experimental26RawMemoryAllocationFailureE+0x224)[0x12be1654]
[r233n16:25340] [ 9] lmp_kokkos_cuda_mpi(_ZN6Kokkos4Impl30checked_allocation_with_headerINS_9CudaSpaceEEEPNS0_22SharedAllocationHeaderERKT_RKNSt7__cxx1112basic_stringIcSt11char_traitsIcESaIcEEEm+0x80)[0x12be1010]
[r233n16:25340] [10] lmp_kokkos_cuda_mpi(_ZN6Kokkos4Impl22SharedAllocationRecordINS_9CudaSpaceEvEC1ERKS2_RKNSt7__cxx1112basic_stringIcSt11char_traitsIcESaIcEEEmPFvPNS1_IvvEEE+0x4c)[0x12bdd35c]
[r233n16:25340] [11] lmp_kokkos_cuda_mpi(_ZN6Kokkos4ViewIA3_PdJNS_11LayoutRightENS_4CudaEvEEC2INSt7__cxx1112basic_stringIcSt11char_traitsIcESaIcEEEEERKT_NSt9enable_ifIXsrNS_4Impl13is_view_labelISD_EE5valueEKmE4typeEmmmmmmm+0x1c0)[0x10a166b0]
[r233n16:25340] [12] lmp_kokkos_cuda_mpi(_ZN6Kokkos8DualViewIA3_PdNS_11LayoutRightENS_4CudaEvE6resizeEmmmmmmmm+0xf8)[0x10a2b868]
[r233n16:25340] [13] lmp_kokkos_cuda_mpi(_ZN9LAMMPS_NS12MemoryKokkos11grow_kokkosIN6Kokkos8DualViewIA3_PdNS2_11LayoutRightENS2_4CudaEvEEEET_RS9_RPPNS9_10value_typeEiPKc+0x78)[0x10a2c7b8]
[r233n16:25340] [14] lmp_kokkos_cuda_mpi(_ZN9LAMMPS_NS19AtomVecAtomicKokkos4growEi+0x27c)[0x1262e9dc]
[r233n16:25340] [15] lmp_kokkos_cuda_mpi(_ZN9LAMMPS_NS19AtomVecAtomicKokkos20unpack_border_kokkosERKiS2_RKN6Kokkos8DualViewIPPdNS3_11LayoutRightENS3_4CudaEvEENS_14ExecutionSpaceE+0x8c)[0x12629a4c]
[r233n16:25340] [16] lmp_kokkos_cuda_mpi(_ZN9LAMMPS_NS10CommKokkos14borders_deviceIN6Kokkos4CudaEEEvv+0x5b0)[0x11258710]
[r233n16:25340] [17] lmp_kokkos_cuda_mpi(_ZN9LAMMPS_NS10CommKokkos7bordersEv+0x248)[0x1124a798]
[r233n16:25340] [18] lmp_kokkos_cuda_mpi(_ZN9LAMMPS_NS12VerletKokkos5setupEi+0x1d0)[0x12b3e0c0]
[r233n16:25340] [19] lmp_kokkos_cuda_mpi(_ZN9LAMMPS_NS3Run7commandEiPPc+0x14fc)[0x1098148c]
[r233n16:25340] [20] lmp_kokkos_cuda_mpi(_ZN9LAMMPS_NS5Input15execute_commandEv+0x2bf0)[0x1091c6f0]
[r233n16:25340] [21] lmp_kokkos_cuda_mpi(_ZN9LAMMPS_NS5Input4fileEv+0x2b0)[0x1091d3b0]
[r233n16:25340] [22] lmp_kokkos_cuda_mpi(main+0x6c)[0x1086af4c]
[r233n16:25340] [23] /lib64/power9/libc.so.6(+0x241f8)[0x20000bb441f8]
[r233n16:25340] [24] /lib64/power9/libc.so.6(__libc_start_main+0xb4)[0x20000bb443e4]
[r233n16:25340] *** End of error message ***
terminate called after throwing an instance of 'std::runtime_error'
  what():  Kokkos failed to allocate memory for label "atom:f".  Allocation using MemorySpace named "Cuda" failed with the following error:  Allocation of size 78.03 K failed, likely due to insufficient memory.  (The allocation mechanism was cudaMalloc().  The Cuda allocation returned the error code ""cudaErrorMemoryAllocation".)

Traceback functionality not available

[r229n16:99341] *** Process received signal ***
[r229n16:99341] Signal: Aborted (6)
[r229n16:99341] Signal code:  (-6)
[r229n16:99341] [ 0] linux-vdso64.so.1(__kernel_sigtramp_rt64+0x0)[0x2000000504d8]
[r229n16:99341] [ 1] /lib64/power9/libc.so.6(gsignal+0xd8)[0x20000bb63798]
[r229n16:99341] [ 2] /lib64/power9/libc.so.6(abort+0x164)[0x20000bb43bac]
[r229n16:99341] [ 3] /cineca/prod/opt/compilers/gnu/8.4.0/none/lib64/libstdc++.so.6(_ZN9__gnu_cxx27__verbose_terminate_handlerEv+0x158)[0x20000b32bd38]
[r229n16:99341] [ 4] /cineca/prod/opt/compilers/gnu/8.4.0/none/lib64/libstdc++.so.6(+0xb6c44)[0x20000b326c44]
[r229n16:99341] [ 5] /cineca/prod/opt/compilers/gnu/8.4.0/none/lib64/libstdc++.so.6(_ZSt9terminatev+0x20)[0x20000b326d00]
[r229n16:99341] [ 6] /cineca/prod/opt/compilers/gnu/8.4.0/none/lib64/libstdc++.so.6(__cxa_throw+0x7c)[0x20000b3271dc]
[r229n16:99341] [ 7] lmp_kokkos_cuda_mpi(_ZN6Kokkos4Impl23throw_runtime_exceptionERKNSt7__cxx1112basic_stringIcSt11char_traitsIcESaIcEEE+0xac)[0x12bd189c]
[r229n16:99341] [ 8] lmp_kokkos_cuda_mpi(_ZN6Kokkos4Impl41safe_throw_allocation_with_header_failureERKNSt7__cxx1112basic_stringIcSt11char_traitsIcESaIcEEES8_RKNS_12Experimental26RawMemoryAllocationFailureE+0x224)[0x12be1654]
[r229n16:99341] [ 9] lmp_kokkos_cuda_mpi(_ZN6Kokkos4Impl30checked_allocation_with_headerINS_9CudaSpaceEEEPNS0_22SharedAllocationHeaderERKT_RKNSt7__cxx1112basic_stringIcSt11char_traitsIcESaIcEEEm+0x80)[0x12be1010]
[r229n16:99341] [10] lmp_kokkos_cuda_mpi(_ZN6Kokkos4Impl22SharedAllocationRecordINS_9CudaSpaceEvEC1ERKS2_RKNSt7__cxx1112basic_stringIcSt11char_traitsIcESaIcEEEmPFvPNS1_IvvEEE+0x4c)[0x12bdd35c]
[r229n16:99341] [11] lmp_kokkos_cuda_mpi(_ZN6Kokkos4ViewIA3_PdJNS_11LayoutRightENS_4CudaEvEEC2INSt7__cxx1112basic_stringIcSt11char_traitsIcESaIcEEEEERKT_NSt9enable_ifIXsrNS_4Impl13is_view_labelISD_EE5valueEKmE4typeEmmmmmmm+0x1c0)[0x10a166b0]
[r229n16:99341] [12] lmp_kokkos_cuda_mpi(_ZN6Kokkos8DualViewIA3_PdNS_11LayoutRightENS_4CudaEvE6resizeEmmmmmmmm+0xf8)[0x10a2b868]
[r229n16:99341] [13] lmp_kokkos_cuda_mpi(_ZN9LAMMPS_NS12MemoryKokkos11grow_kokkosIN6Kokkos8DualViewIA3_PdNS2_11LayoutRightENS2_4CudaEvEEEET_RS9_RPPNS9_10value_typeEiPKc+0x78)[0x10a2c7b8]
[r229n16:99341] [14] lmp_kokkos_cuda_mpi(_ZN9LAMMPS_NS19AtomVecAtomicKokkos4growEi+0x27c)[0x1262e9dc]
[r229n16:99341] [15] lmp_kokkos_cuda_mpi(_ZN9LAMMPS_NS19AtomVecAtomicKokkos20unpack_border_kokkosERKiS2_RKN6Kokkos8DualViewIPPdNS3_11LayoutRightENS3_4CudaEvEENS_14ExecutionSpaceE+0x8c)[0x12629a4c]
[r229n16:99341] [16] lmp_kokkos_cuda_mpi(_ZN9LAMMPS_NS10CommKokkos14borders_deviceIN6Kokkos4CudaEEEvv+0x5b0)[0x11258710]
[r229n16:99341] [17] lmp_kokkos_cuda_mpi(_ZN9LAMMPS_NS10CommKokkos7bordersEv+0x248)[0x1124a798]
[r229n16:99341] [18] lmp_kokkos_cuda_mpi(_ZN9LAMMPS_NS12VerletKokkos5setupEi+0x1d0)[0x12b3e0c0]
[r229n16:99341] [19] lmp_kokkos_cuda_mpi(_ZN9LAMMPS_NS3Run7commandEiPPc+0x14fc)[0x1098148c]
[r229n16:99341] [20] lmp_kokkos_cuda_mpi(_ZN9LAMMPS_NS5Input15execute_commandEv+0x2bf0)[0x1091c6f0]
[r229n16:99341] [21] lmp_kokkos_cuda_mpi(_ZN9LAMMPS_NS5Input4fileEv+0x2b0)[0x1091d3b0]
[r229n16:99341] [22] lmp_kokkos_cuda_mpi(main+0x6c)[0x1086af4c]
[r229n16:99341] [23] /lib64/power9/libc.so.6(+0x241f8)[0x20000bb441f8]
[r229n16:99341] [24] /lib64/power9/libc.so.6(__libc_start_main+0xb4)[0x20000bb443e4]
[r229n16:99341] *** End of error message ***
terminate called after throwing an instance of 'std::runtime_error'
  what():  Kokkos failed to allocate memory for label "atom:f".  Allocation using MemorySpace named "Cuda" failed with the following error:  Allocation of size 78.03 K failed, likely due to insufficient memory.  (The allocation mechanism was cudaMalloc().  The Cuda allocation returned the error code ""cudaErrorMemoryAllocation".)

Traceback functionality not available

[r233n16:25354] *** Process received signal ***
[r233n16:25354] Signal: Aborted (6)
[r233n16:25354] Signal code:  (-6)
[r233n16:25354] [ 0] linux-vdso64.so.1(__kernel_sigtramp_rt64+0x0)[0x2000000504d8]
[r233n16:25354] [ 1] /lib64/power9/libc.so.6(gsignal+0xd8)[0x20000bb63798]
[r233n16:25354] [ 2] /lib64/power9/libc.so.6(abort+0x164)[0x20000bb43bac]
[r233n16:25354] [ 3] /cineca/prod/opt/compilers/gnu/8.4.0/none/lib64/libstdc++.so.6(_ZN9__gnu_cxx27__verbose_terminate_handlerEv+0x158)[0x20000b32bd38]
[r233n16:25354] [ 4] /cineca/prod/opt/compilers/gnu/8.4.0/none/lib64/libstdc++.so.6(+0xb6c44)[0x20000b326c44]
[r233n16:25354] [ 5] /cineca/prod/opt/compilers/gnu/8.4.0/none/lib64/libstdc++.so.6(_ZSt9terminatev+0x20)[0x20000b326d00]
[r233n16:25354] [ 6] /cineca/prod/opt/compilers/gnu/8.4.0/none/lib64/libstdc++.so.6(__cxa_throw+0x7c)[0x20000b3271dc]
[r233n16:25354] [ 7] lmp_kokkos_cuda_mpi(_ZN6Kokkos4Impl23throw_runtime_exceptionERKNSt7__cxx1112basic_stringIcSt11char_traitsIcESaIcEEE+0xac)[0x12bd189c]
[r233n16:25354] [ 8] lmp_kokkos_cuda_mpi(_ZN6Kokkos4Impl41safe_throw_allocation_with_header_failureERKNSt7__cxx1112basic_stringIcSt11char_traitsIcESaIcEEES8_RKNS_12Experimental26RawMemoryAllocationFailureE+0x224)[0x12be1654]
[r233n16:25354] [ 9] lmp_kokkos_cuda_mpi(_ZN6Kokkos4Impl30checked_allocation_with_headerINS_9CudaSpaceEEEPNS0_22SharedAllocationHeaderERKT_RKNSt7__cxx1112basic_stringIcSt11char_traitsIcESaIcEEEm+0x80)[0x12be1010]
[r233n16:25354] [10] lmp_kokkos_cuda_mpi(_ZN6Kokkos4Impl22SharedAllocationRecordINS_9CudaSpaceEvEC1ERKS2_RKNSt7__cxx1112basic_stringIcSt11char_traitsIcESaIcEEEmPFvPNS1_IvvEEE+0x4c)[0x12bdd35c]
[r233n16:25354] [11] lmp_kokkos_cuda_mpi(_ZN6Kokkos4ViewIA3_PdJNS_11LayoutRightENS_4CudaEvEEC2INSt7__cxx1112basic_stringIcSt11char_traitsIcESaIcEEEEERKT_NSt9enable_ifIXsrNS_4Impl13is_view_labelISD_EE5valueEKmE4typeEmmmmmmm+0x1c0)[0x10a166b0]
[r233n16:25354] [12] lmp_kokkos_cuda_mpi(_ZN6Kokkos8DualViewIA3_PdNS_11LayoutRightENS_4CudaEvE6resizeEmmmmmmmm+0xf8)[0x10a2b868]
[r233n16:25354] [13] lmp_kokkos_cuda_mpi(_ZN9LAMMPS_NS12MemoryKokkos11grow_kokkosIN6Kokkos8DualViewIA3_PdNS2_11LayoutRightENS2_4CudaEvEEEET_RS9_RPPNS9_10value_typeEiPKc+0x78)[0x10a2c7b8]
[r233n16:25354] [14] lmp_kokkos_cuda_mpi(_ZN9LAMMPS_NS19AtomVecAtomicKokkos4growEi+0x27c)[0x1262e9dc]
[r233n16:25354] [15] lmp_kokkos_cuda_mpi(_ZN9LAMMPS_NS19AtomVecAtomicKokkos20unpack_border_kokkosERKiS2_RKN6Kokkos8DualViewIPPdNS3_11LayoutRightENS3_4CudaEvEENS_14ExecutionSpaceE+0x8c)[0x12629a4c]
[r233n16:25354] [16] lmp_kokkos_cuda_mpi(_ZN9LAMMPS_NS10CommKokkos14borders_deviceIN6Kokkos4CudaEEEvv+0x5b0)[0x11258710]
[r233n16:25354] [17] lmp_kokkos_cuda_mpi(_ZN9LAMMPS_NS10CommKokkos7bordersEv+0x248)[0x1124a798]
[r233n16:25354] [18] lmp_kokkos_cuda_mpi(_ZN9LAMMPS_NS12VerletKokkos5setupEi+0x1d0)[0x12b3e0c0]
[r233n16:25354] [19] lmp_kokkos_cuda_mpi(_ZN9LAMMPS_NS3Run7commandEiPPc+0x14fc)[0x1098148c]
[r233n16:25354] [20] lmp_kokkos_cuda_mpi(_ZN9LAMMPS_NS5Input15execute_commandEv+0x2bf0)[0x1091c6f0]
[r233n16:25354] [21] lmp_kokkos_cuda_mpi(_ZN9LAMMPS_NS5Input4fileEv+0x2b0)[0x1091d3b0]
[r233n16:25354] [22] lmp_kokkos_cuda_mpi(main+0x6c)[0x1086af4c]
[r233n16:25354] [23] /lib64/power9/libc.so.6(+0x241f8)[0x20000bb441f8]
[r233n16:25354] [24] /lib64/power9/libc.so.6(__libc_start_main+0xb4)[0x20000bb443e4]
[r233n16:25354] *** End of error message ***
terminate called after throwing an instance of 'std::runtime_error'
  what():  Kokkos failed to allocate memory for label "atom:f".  Allocation using MemorySpace named "Cuda" failed with the following error:  Allocation of size 78.03 K failed, likely due to insufficient memory.  (The allocation mechanism was cudaMalloc().  The Cuda allocation returned the error code ""cudaErrorMemoryAllocation".)

Traceback functionality not available

[r233n16:25355] *** Process received signal ***
[r233n16:25355] Signal: Aborted (6)
[r233n16:25355] Signal code:  (-6)
[r233n16:25355] [ 0] linux-vdso64.so.1(__kernel_sigtramp_rt64+0x0)[0x2000000504d8]
[r233n16:25355] [ 1] /lib64/power9/libc.so.6(gsignal+0xd8)[0x20000bb63798]
[r233n16:25355] [ 2] /lib64/power9/libc.so.6(abort+0x164)[0x20000bb43bac]
[r233n16:25355] [ 3] /cineca/prod/opt/compilers/gnu/8.4.0/none/lib64/libstdc++.so.6(_ZN9__gnu_cxx27__verbose_terminate_handlerEv+0x158)[0x20000b32bd38]
[r233n16:25355] [ 4] /cineca/prod/opt/compilers/gnu/8.4.0/none/lib64/libstdc++.so.6(+0xb6c44)[0x20000b326c44]
[r233n16:25355] [ 5] /cineca/prod/opt/compilers/gnu/8.4.0/none/lib64/libstdc++.so.6(_ZSt9terminatev+0x20)[0x20000b326d00]
[r233n16:25355] [ 6] /cineca/prod/opt/compilers/gnu/8.4.0/none/lib64/libstdc++.so.6(__cxa_throw+0x7c)[0x20000b3271dc]
[r233n16:25355] [ 7] lmp_kokkos_cuda_mpi(_ZN6Kokkos4Impl23throw_runtime_exceptionERKNSt7__cxx1112basic_stringIcSt11char_traitsIcESaIcEEE+0xac)[0x12bd189c]
[r233n16:25355] [ 8] lmp_kokkos_cuda_mpi(_ZN6Kokkos4Impl41safe_throw_allocation_with_header_failureERKNSt7__cxx1112basic_stringIcSt11char_traitsIcESaIcEEES8_RKNS_12Experimental26RawMemoryAllocationFailureE+0x224)[0x12be1654]
[r233n16:25355] [ 9] lmp_kokkos_cuda_mpi(_ZN6Kokkos4Impl30checked_allocation_with_headerINS_9CudaSpaceEEEPNS0_22SharedAllocationHeaderERKT_RKNSt7__cxx1112basic_stringIcSt11char_traitsIcESaIcEEEm+0x80)[0x12be1010]
[r233n16:25355] [10] lmp_kokkos_cuda_mpi(_ZN6Kokkos4Impl22SharedAllocationRecordINS_9CudaSpaceEvEC1ERKS2_RKNSt7__cxx1112basic_stringIcSt11char_traitsIcESaIcEEEmPFvPNS1_IvvEEE+0x4c)[0x12bdd35c]
[r233n16:25355] [11] lmp_kokkos_cuda_mpi(_ZN6Kokkos4ViewIA3_PdJNS_11LayoutRightENS_4CudaEvEEC2INSt7__cxx1112basic_stringIcSt11char_traitsIcESaIcEEEEERKT_NSt9enable_ifIXsrNS_4Impl13is_view_labelISD_EE5valueEKmE4typeEmmmmmmm+0x1c0)[0x10a166b0]
[r233n16:25355] [12] lmp_kokkos_cuda_mpi(_ZN6Kokkos8DualViewIA3_PdNS_11LayoutRightENS_4CudaEvE6resizeEmmmmmmmm+0xf8)[0x10a2b868]
[r233n16:25355] [13] lmp_kokkos_cuda_mpi(_ZN9LAMMPS_NS12MemoryKokkos11grow_kokkosIN6Kokkos8DualViewIA3_PdNS2_11LayoutRightENS2_4CudaEvEEEET_RS9_RPPNS9_10value_typeEiPKc+0x78)[0x10a2c7b8]
[r233n16:25355] [14] lmp_kokkos_cuda_mpi(_ZN9LAMMPS_NS19AtomVecAtomicKokkos4growEi+0x27c)[0x1262e9dc]
[r233n16:25355] [15] lmp_kokkos_cuda_mpi(_ZN9LAMMPS_NS19AtomVecAtomicKokkos20unpack_border_kokkosERKiS2_RKN6Kokkos8DualViewIPPdNS3_11LayoutRightENS3_4CudaEvEENS_14ExecutionSpaceE+0x8c)[0x12629a4c]
[r233n16:25355] [16] lmp_kokkos_cuda_mpi(_ZN9LAMMPS_NS10CommKokkos14borders_deviceIN6Kokkos4CudaEEEvv+0x5b0)[0x11258710]
[r233n16:25355] [17] lmp_kokkos_cuda_mpi(_ZN9LAMMPS_NS10CommKokkos7bordersEv+0x248)[0x1124a798]
[r233n16:25355] [18] lmp_kokkos_cuda_mpi(_ZN9LAMMPS_NS12VerletKokkos5setupEi+0x1d0)[0x12b3e0c0]
[r233n16:25355] [19] lmp_kokkos_cuda_mpi(_ZN9LAMMPS_NS3Run7commandEiPPc+0x14fc)[0x1098148c]
[r233n16:25355] [20] lmp_kokkos_cuda_mpi(_ZN9LAMMPS_NS5Input15execute_commandEv+0x2bf0)[0x1091c6f0]
[r233n16:25355] [21] lmp_kokkos_cuda_mpi(_ZN9LAMMPS_NS5Input4fileEv+0x2b0)[0x1091d3b0]
[r233n16:25355] [22] lmp_kokkos_cuda_mpi(main+0x6c)[0x1086af4c]
[r233n16:25355] [23] /lib64/power9/libc.so.6(+0x241f8)[0x20000bb441f8]
[r233n16:25355] [24] /lib64/power9/libc.so.6(__libc_start_main+0xb4)[0x20000bb443e4]
[r233n16:25355] *** End of error message ***
terminate called after throwing an instance of 'std::runtime_error'
  what():  Kokkos failed to allocate memory for label "atom:f".  Allocation using MemorySpace named "Cuda" failed with the following error:  Allocation of size 78.03 K failed, likely due to insufficient memory.  (The allocation mechanism was cudaMalloc().  The Cuda allocation returned the error code ""cudaErrorMemoryAllocation".)

Traceback functionality not available

[r233n16:25356] *** Process received signal ***
[r233n16:25356] Signal: Aborted (6)
[r233n16:25356] Signal code:  (-6)
[r233n16:25356] [ 0] linux-vdso64.so.1(__kernel_sigtramp_rt64+0x0)[0x2000000504d8]
[r233n16:25356] [ 1] /lib64/power9/libc.so.6(gsignal+0xd8)[0x20000bb63798]
[r233n16:25356] [ 2] /lib64/power9/libc.so.6(abort+0x164)[0x20000bb43bac]
[r233n16:25356] [ 3] /cineca/prod/opt/compilers/gnu/8.4.0/none/lib64/libstdc++.so.6(_ZN9__gnu_cxx27__verbose_terminate_handlerEv+0x158)[0x20000b32bd38]
[r233n16:25356] [ 4] /cineca/prod/opt/compilers/gnu/8.4.0/none/lib64/libstdc++.so.6(+0xb6c44)[0x20000b326c44]
[r233n16:25356] [ 5] /cineca/prod/opt/compilers/gnu/8.4.0/none/lib64/libstdc++.so.6(_ZSt9terminatev+0x20)[0x20000b326d00]
[r233n16:25356] [ 6] /cineca/prod/opt/compilers/gnu/8.4.0/none/lib64/libstdc++.so.6(__cxa_throw+0x7c)[0x20000b3271dc]
[r233n16:25356] [ 7] lmp_kokkos_cuda_mpi(_ZN6Kokkos4Impl23throw_runtime_exceptionERKNSt7__cxx1112basic_stringIcSt11char_traitsIcESaIcEEE+0xac)[0x12bd189c]
[r233n16:25356] [ 8] lmp_kokkos_cuda_mpi(_ZN6Kokkos4Impl41safe_throw_allocation_with_header_failureERKNSt7__cxx1112basic_stringIcSt11char_traitsIcESaIcEEES8_RKNS_12Experimental26RawMemoryAllocationFailureE+0x224)[0x12be1654]
[r233n16:25356] [ 9] lmp_kokkos_cuda_mpi(_ZN6Kokkos4Impl30checked_allocation_with_headerINS_9CudaSpaceEEEPNS0_22SharedAllocationHeaderERKT_RKNSt7__cxx1112basic_stringIcSt11char_traitsIcESaIcEEEm+0x80)[0x12be1010]
[r233n16:25356] [10] lmp_kokkos_cuda_mpi(_ZN6Kokkos4Impl22SharedAllocationRecordINS_9CudaSpaceEvEC1ERKS2_RKNSt7__cxx1112basic_stringIcSt11char_traitsIcESaIcEEEmPFvPNS1_IvvEEE+0x4c)[0x12bdd35c]
[r233n16:25356] [11] lmp_kokkos_cuda_mpi(_ZN6Kokkos4ViewIA3_PdJNS_11LayoutRightENS_4CudaEvEEC2INSt7__cxx1112basic_stringIcSt11char_traitsIcESaIcEEEEERKT_NSt9enable_ifIXsrNS_4Impl13is_view_labelISD_EE5valueEKmE4typeEmmmmmmm+0x1c0)[0x10a166b0]
[r233n16:25356] [12] lmp_kokkos_cuda_mpi(_ZN6Kokkos8DualViewIA3_PdNS_11LayoutRightENS_4CudaEvE6resizeEmmmmmmmm+0xf8)[0x10a2b868]
[r233n16:25356] [13] lmp_kokkos_cuda_mpi(_ZN9LAMMPS_NS12MemoryKokkos11grow_kokkosIN6Kokkos8DualViewIA3_PdNS2_11LayoutRightENS2_4CudaEvEEEET_RS9_RPPNS9_10value_typeEiPKc+0x78)[0x10a2c7b8]
[r233n16:25356] [14] lmp_kokkos_cuda_mpi(_ZN9LAMMPS_NS19AtomVecAtomicKokkos4growEi+0x27c)[0x1262e9dc]
[r233n16:25356] [15] lmp_kokkos_cuda_mpi(_ZN9LAMMPS_NS19AtomVecAtomicKokkos20unpack_border_kokkosERKiS2_RKN6Kokkos8DualViewIPPdNS3_11LayoutRightENS3_4CudaEvEENS_14ExecutionSpaceE+0x8c)[0x12629a4c]
[r233n16:25356] [16] lmp_kokkos_cuda_mpi(_ZN9LAMMPS_NS10CommKokkos14borders_deviceIN6Kokkos4CudaEEEvv+0x5b0)[0x11258710]
[r233n16:25356] [17] lmp_kokkos_cuda_mpi(_ZN9LAMMPS_NS10CommKokkos7bordersEv+0x248)[0x1124a798]
[r233n16:25356] [18] lmp_kokkos_cuda_mpi(_ZN9LAMMPS_NS12VerletKokkos5setupEi+0x1d0)[0x12b3e0c0]
[r233n16:25356] [19] lmp_kokkos_cuda_mpi(_ZN9LAMMPS_NS3Run7commandEiPPc+0x14fc)[0x1098148c]
[r233n16:25356] [20] lmp_kokkos_cuda_mpi(_ZN9LAMMPS_NS5Input15execute_commandEv+0x2bf0)[0x1091c6f0]
[r233n16:25356] [21] lmp_kokkos_cuda_mpi(_ZN9LAMMPS_NS5Input4fileEv+0x2b0)[0x1091d3b0]
[r233n16:25356] [22] lmp_kokkos_cuda_mpi(main+0x6c)[0x1086af4c]
[r233n16:25356] [23] /lib64/power9/libc.so.6(+0x241f8)[0x20000bb441f8]
[r233n16:25356] [24] /lib64/power9/libc.so.6(__libc_start_main+0xb4)[0x20000bb443e4]
[r233n16:25356] *** End of error message ***
terminate called after throwing an instance of 'std::runtime_error'
  what():  Kokkos failed to allocate memory for label "atom:f".  Allocation using MemorySpace named "Cuda" failed with the following error:  Allocation of size 78.03 K failed, likely due to insufficient memory.  (The allocation mechanism was cudaMalloc().  The Cuda allocation returned the error code ""cudaErrorMemoryAllocation".)

Traceback functionality not available

[r233n16:25353] *** Process received signal ***
[r233n16:25353] Signal: Aborted (6)
[r233n16:25353] Signal code:  (-6)
[r233n16:25353] [ 0] linux-vdso64.so.1(__kernel_sigtramp_rt64+0x0)[0x2000000504d8]
[r233n16:25353] [ 1] /lib64/power9/libc.so.6(gsignal+0xd8)[0x20000bb63798]
[r233n16:25353] [ 2] /lib64/power9/libc.so.6(abort+0x164)[0x20000bb43bac]
[r233n16:25353] [ 3] /cineca/prod/opt/compilers/gnu/8.4.0/none/lib64/libstdc++.so.6(_ZN9__gnu_cxx27__verbose_terminate_handlerEv+0x158)[0x20000b32bd38]
[r233n16:25353] [ 4] /cineca/prod/opt/compilers/gnu/8.4.0/none/lib64/libstdc++.so.6(+0xb6c44)[0x20000b326c44]
[r233n16:25353] [ 5] /cineca/prod/opt/compilers/gnu/8.4.0/none/lib64/libstdc++.so.6(_ZSt9terminatev+0x20)[0x20000b326d00]
[r233n16:25353] [ 6] /cineca/prod/opt/compilers/gnu/8.4.0/none/lib64/libstdc++.so.6(__cxa_throw+0x7c)[0x20000b3271dc]
[r233n16:25353] [ 7] lmp_kokkos_cuda_mpi(_ZN6Kokkos4Impl23throw_runtime_exceptionERKNSt7__cxx1112basic_stringIcSt11char_traitsIcESaIcEEE+0xac)[0x12bd189c]
[r233n16:25353] [ 8] lmp_kokkos_cuda_mpi(_ZN6Kokkos4Impl41safe_throw_allocation_with_header_failureERKNSt7__cxx1112basic_stringIcSt11char_traitsIcESaIcEEES8_RKNS_12Experimental26RawMemoryAllocationFailureE+0x224)[0x12be1654]
[r233n16:25353] [ 9] lmp_kokkos_cuda_mpi(_ZN6Kokkos4Impl30checked_allocation_with_headerINS_9CudaSpaceEEEPNS0_22SharedAllocationHeaderERKT_RKNSt7__cxx1112basic_stringIcSt11char_traitsIcESaIcEEEm+0x80)[0x12be1010]
[r233n16:25353] [10] lmp_kokkos_cuda_mpi(_ZN6Kokkos4Impl22SharedAllocationRecordINS_9CudaSpaceEvEC1ERKS2_RKNSt7__cxx1112basic_stringIcSt11char_traitsIcESaIcEEEmPFvPNS1_IvvEEE+0x4c)[0x12bdd35c]
[r233n16:25353] [11] lmp_kokkos_cuda_mpi(_ZN6Kokkos4ViewIA3_PdJNS_11LayoutRightENS_4CudaEvEEC2INSt7__cxx1112basic_stringIcSt11char_traitsIcESaIcEEEEERKT_NSt9enable_ifIXsrNS_4Impl13is_view_labelISD_EE5valueEKmE4typeEmmmmmmm+0x1c0)[0x10a166b0]
[r233n16:25353] [12] lmp_kokkos_cuda_mpi(_ZN6Kokkos8DualViewIA3_PdNS_11LayoutRightENS_4CudaEvE6resizeEmmmmmmmm+0xf8)[0x10a2b868]
[r233n16:25353] [13] lmp_kokkos_cuda_mpi(_ZN9LAMMPS_NS12MemoryKokkos11grow_kokkosIN6Kokkos8DualViewIA3_PdNS2_11LayoutRightENS2_4CudaEvEEEET_RS9_RPPNS9_10value_typeEiPKc+0x78)[0x10a2c7b8]
[r233n16:25353] [14] lmp_kokkos_cuda_mpi(_ZN9LAMMPS_NS19AtomVecAtomicKokkos4growEi+0x27c)[0x1262e9dc]
[r233n16:25353] [15] lmp_kokkos_cuda_mpi(_ZN9LAMMPS_NS19AtomVecAtomicKokkos20unpack_border_kokkosERKiS2_RKN6Kokkos8DualViewIPPdNS3_11LayoutRightENS3_4CudaEvEENS_14ExecutionSpaceE+0x8c)[0x12629a4c]
[r233n16:25353] [16] lmp_kokkos_cuda_mpi(_ZN9LAMMPS_NS10CommKokkos14borders_deviceIN6Kokkos4CudaEEEvv+0x5b0)[0x11258710]
[...]
[r229n16:99352] [15] lmp_kokkos_cuda_mpi(_ZN9LAMMPS_NS19AtomVecAtomicKokkos20unpack_border_kokkosERKiS2_RKN6Kokkos8DualViewIPPdNS3_11LayoutRightENS3_4CudaEvEENS_14ExecutionSpaceE+0x8c)[0x12629a4c]
[r229n16:99352] [16] lmp_kokkos_cuda_mpi(_ZN9LAMMPS_NS10CommKokkos14borders_deviceIN6Kokkos4CudaEEEvv+0x5b0)[0x11258710]
[r229n16:99352] [17] lmp_kokkos_cuda_mpi(_ZN9LAMMPS_NS10CommKokkos7bordersEv+0x248)[0x1124a798]
[r229n16:99352] [18] lmp_kokkos_cuda_mpi(_ZN9LAMMPS_NS12VerletKokkos5setupEi+0x1d0)[0x12b3e0c0]
[r229n16:99352] [19] lmp_kokkos_cuda_mpi(_ZN9LAMMPS_NS3Run7commandEiPPc+0x14fc)[0x1098148c]
[r229n16:99352] [20] lmp_kokkos_cuda_mpi(_ZN9LAMMPS_NS5Input15execute_commandEv+0x2bf0)[0x1091c6f0]
[r229n16:99352] [21] lmp_kokkos_cuda_mpi(_ZN9LAMMPS_NS5Input4fileEv+0x2b0)[0x1091d3b0]
[r229n16:99352] [22] lmp_kokkos_cuda_mpi(main+0x6c)[0x1086af4c]
[r229n16:99352] [23] /lib64/power9/libc.so.6(+0x241f8)[0x20000bb441f8]
[r229n16:99352] [24] /lib64/power9/libc.so.6(__libc_start_main+0xb4)[0x20000bb443e4]
[r229n16:99352] *** End of error message ***
linux-vdso64.so.1(__kernel_sigtramp_rt64+0x0)[0x2000000504d8]
[r229n16:99351] [ 1] /lib64/power9/libc.so.6(gsignal+0xd8)[0x20000bb63798]
[r229n16:99351] [ 2] /lib64/power9/libc.so.6(abort+0x164)[0x20000bb43bac]
[r229n16:99351] [ 3] /cineca/prod/opt/compilers/gnu/8.4.0/none/lib64/libstdc++.so.6(_ZN9__gnu_cxx27__verbose_terminate_handlerEv+0x158)[0x20000b32bd38]
[r229n16:99351] [ 4] /cineca/prod/opt/compilers/gnu/8.4.0/none/lib64/libstdc++.so.6(+0xb6c44)[0x20000b326c44]
[r229n16:99351] [ 5] /cineca/prod/opt/compilers/gnu/8.4.0/none/lib64/libstdc++.so.6(_ZSt9terminatev+0x20)[0x20000b326d00]
[r229n16:99351] [ 6] /cineca/prod/opt/compilers/gnu/8.4.0/none/lib64/libstdc++.so.6(__cxa_throw+0x7c)[0x20000b3271dc]
[r229n16:99351] [ 7] lmp_kokkos_cuda_mpi(_ZN6Kokkos4Impl23throw_runtime_exceptionERKNSt7__cxx1112basic_stringIcSt11char_traitsIcESaIcEEE+0xac)[0x12bd189c]
[r229n16:99351] [ 8] lmp_kokkos_cuda_mpi(_ZN6Kokkos4Impl41safe_throw_allocation_with_header_failureERKNSt7__cxx1112basic_stringIcSt11char_traitsIcESaIcEEES8_RKNS_12Experimental26RawMemoryAllocationFailureE+0x224)[0x12be1654]
[r229n16:99351] [ 9] lmp_kokkos_cuda_mpi(_ZN6Kokkos4Impl30checked_allocation_with_headerINS_9CudaSpaceEEEPNS0_22SharedAllocationHeaderERKT_RKNSt7__cxx1112basic_stringIcSt11char_traitsIcESaIcEEEm+0x80)[0x12be1010]
[r229n16:99351] [10] lmp_kokkos_cuda_mpi(_ZN6Kokkos4Impl22SharedAllocationRecordINS_9CudaSpaceEvEC1ERKS2_RKNSt7__cxx1112basic_stringIcSt11char_traitsIcESaIcEEEmPFvPNS1_IvvEEE+0x4c)[0x12bdd35c]
[r229n16:99351] [11] lmp_kokkos_cuda_mpi(_ZN6Kokkos4ViewIA3_PdJNS_11LayoutRightENS_4CudaEvEEC2INSt7__cxx1112basic_stringIcSt11char_traitsIcESaIcEEEEERKT_NSt9enable_ifIXsrNS_4Impl13is_view_labelISD_EE5valueEKmE4typeEmmmmmmm+0x1c0)[0x10a166b0]
[r229n16:99351] [12] lmp_kokkos_cuda_mpi(_ZN6Kokkos8DualViewIA3_PdNS_11LayoutRightENS_4CudaEvE6resizeEmmmmmmmm+0xf8)[0x10a2b868]
[r229n16:99351] [13] lmp_kokkos_cuda_mpi(_ZN9LAMMPS_NS12MemoryKokkos11grow_kokkosIN6Kokkos8DualViewIA3_PdNS2_11LayoutRightENS2_4CudaEvEEEET_RS9_RPPNS9_10value_typeEiPKc+0x78)[0x10a2c7b8]
[r229n16:99351] [14] lmp_kokkos_cuda_mpi(_ZN9LAMMPS_NS19AtomVecAtomicKokkos4growEi+0x27c)[0x1262e9dc]
[r229n16:99351] [15] lmp_kokkos_cuda_mpi(_ZN9LAMMPS_NS19AtomVecAtomicKokkos20unpack_border_kokkosERKiS2_RKN6Kokkos8DualViewIPPdNS3_11LayoutRightENS3_4CudaEvEENS_14ExecutionSpaceE+0x8c)[0x12629a4c]
[r229n16:99351] [16] lmp_kokkos_cuda_mpi(_ZN9LAMMPS_NS10CommKokkos14borders_deviceIN6Kokkos4CudaEEEvv+0x5b0)[0x11258710]
[r229n16:99351] [17] lmp_kokkos_cuda_mpi(_ZN9LAMMPS_NS10CommKokkos7bordersEv+0x248)[0x1124a798]
[r229n16:99351] [18] lmp_kokkos_cuda_mpi(_ZN9LAMMPS_NS12VerletKokkos5setupEi+0x1d0)[0x12b3e0c0]
[r229n16:99351] [19] lmp_kokkos_cuda_mpi(_ZN9LAMMPS_NS3Run7commandEiPPc+0x14fc)[0x1098148c]
[r229n16:99351] [20] lmp_kokkos_cuda_mpi(_ZN9LAMMPS_NS5Input15execute_commandEv+0x2bf0)[0x1091c6f0]
[r229n16:99351] [21] lmp_kokkos_cuda_mpi(_ZN9LAMMPS_NS5Input4fileEv+0x2b0)[0x1091d3b0]
[r229n16:99351] [22] lmp_kokkos_cuda_mpi(main+0x6c)[0x1086af4c]
[r229n16:99351] [23] /lib64/power9/libc.so.6(+0x241f8)[0x20000bb441f8]
[r229n16:99351] [24] /lib64/power9/libc.so.6(__libc_start_main+0xb4)[0x20000bb443e4]
[r229n16:99351] *** End of error message ***
terminate called after throwing an instance of 'std::runtime_error'
  what():  Kokkos failed to allocate memory for label "atom:f".  Allocation using MemorySpace named "Cuda" failed with the following error:  Allocation of size 70.09 K failed, likely due to insufficient memory.  (The allocation mechanism was cudaMalloc().  The Cuda allocation returned the error code ""cudaErrorMemoryAllocation".)

Traceback functionality not available

[r229n16:99335] *** Process received signal ***
[r229n16:99335] Signal: Aborted (6)
[r229n16:99335] Signal code:  (-6)
[r229n16:99335] [ 0] linux-vdso64.so.1(__kernel_sigtramp_rt64+0x0)[0x2000000504d8]
[r229n16:99335] [ 1] /lib64/power9/libc.so.6(gsignal+0xd8)[0x20000bb63798]
[r229n16:99335] [ 2] /lib64/power9/libc.so.6(abort+0x164)[0x20000bb43bac]
[r229n16:99335] [ 3] /cineca/prod/opt/compilers/gnu/8.4.0/none/lib64/libstdc++.so.6(_ZN9__gnu_cxx27__verbose_terminate_handlerEv+0x158)[0x20000b32bd38]
[r229n16:99335] [ 4] /cineca/prod/opt/compilers/gnu/8.4.0/none/lib64/libstdc++.so.6(+0xb6c44)[0x20000b326c44]
[r229n16:99335] [ 5] /cineca/prod/opt/compilers/gnu/8.4.0/none/lib64/libstdc++.so.6(_ZSt9terminatev+0x20)[0x20000b326d00]
[r229n16:99335] [ 6] /cineca/prod/opt/compilers/gnu/8.4.0/none/lib64/libstdc++.so.6(__cxa_throw+0x7c)[0x20000b3271dc]
[r229n16:99335] [ 7] lmp_kokkos_cuda_mpi(_ZN6Kokkos4Impl23throw_runtime_exceptionERKNSt7__cxx1112basic_stringIcSt11char_traitsIcESaIcEEE+0xac)[0x12bd189c]
[r229n16:99335] [ 8] lmp_kokkos_cuda_mpi(_ZN6Kokkos4Impl41safe_throw_allocation_with_header_failureERKNSt7__cxx1112basic_stringIcSt11char_traitsIcESaIcEEES8_RKNS_12Experimental26RawMemoryAllocationFailureE+0x224)[0x12be1654]
[r229n16:99335] [ 9] lmp_kokkos_cuda_mpi(_ZN6Kokkos4Impl30checked_allocation_with_headerINS_9CudaSpaceEEEPNS0_22SharedAllocationHeaderERKT_RKNSt7__cxx1112basic_stringIcSt11char_traitsIcESaIcEEEm+0x80)[0x12be1010]
[r229n16:99335] [10] lmp_kokkos_cuda_mpi(_ZN6Kokkos4Impl22SharedAllocationRecordINS_9CudaSpaceEvEC1ERKS2_RKNSt7__cxx1112basic_stringIcSt11char_traitsIcESaIcEEEmPFvPNS1_IvvEEE+0x4c)[0x12bdd35c]
[r229n16:99335] [11] lmp_kokkos_cuda_mpi(_ZN6Kokkos4ViewIA3_PdJNS_11LayoutRightENS_4CudaEvEEC2INSt7__cxx1112basic_stringIcSt11char_traitsIcESaIcEEEEERKT_NSt9enable_ifIXsrNS_4Impl13is_view_labelISD_EE5valueEKmE4typeEmmmmmmm+0x1c0)[0x10a166b0]
[r229n16:99335] [12] lmp_kokkos_cuda_mpi(_ZN6Kokkos8DualViewIA3_PdNS_11LayoutRightENS_4CudaEvE6resizeEmmmmmmmm+0xf8)[0x10a2b868]
[r229n16:99335] [13] lmp_kokkos_cuda_mpi(_ZN9LAMMPS_NS12MemoryKokkos11grow_kokkosIN6Kokkos8DualViewIA3_PdNS2_11LayoutRightENS2_4CudaEvEEEET_RS9_RPPNS9_10value_typeEiPKc+0x78)[0x10a2c7b8]
[r229n16:99335] [14] lmp_kokkos_cuda_mpi(_ZN9LAMMPS_NS19AtomVecAtomicKokkos4growEi+0x27c)[0x1262e9dc]
[r229n16:99335] [15] lmp_kokkos_cuda_mpi(_ZN9LAMMPS_NS19AtomVecAtomicKokkos20unpack_border_kokkosERKiS2_RKN6Kokkos8DualViewIPPdNS3_11LayoutRightENS3_4CudaEvEENS_14ExecutionSpaceE+0x8c)[0x12629a4c]
[r229n16:99335] [16] lmp_kokkos_cuda_mpi(_ZN9LAMMPS_NS10CommKokkos14borders_deviceIN6Kokkos4CudaEEEvv+0x5b0)[0x11258710]
[r229n16:99335] [17] lmp_kokkos_cuda_mpi(_ZN9LAMMPS_NS10CommKokkos7bordersEv+0x248)[0x1124a798]
[r229n16:99335] [18] lmp_kokkos_cuda_mpi(_ZN9LAMMPS_NS12VerletKokkos5setupEi+0x1d0)[0x12b3e0c0]
[r229n16:99335] [19] lmp_kokkos_cuda_mpi(_ZN9LAMMPS_NS3Run7commandEiPPc+0x14fc)[0x1098148c]
[r229n16:99335] [20] lmp_kokkos_cuda_mpi(_ZN9LAMMPS_NS5Input15execute_commandEv+0x2bf0)[0x1091c6f0]
[r229n16:99335] [21] lmp_kokkos_cuda_mpi(_ZN9LAMMPS_NS5Input4fileEv+0x2b0)[0x1091d3b0]
[r229n16:99335] [22] lmp_kokkos_cuda_mpi(main+0x6c)[0x1086af4c]
[r229n16:99335] [23] /lib64/power9/libc.so.6(+0x241f8)[0x20000bb441f8]
[r229n16:99335] [24] /lib64/power9/libc.so.6(__libc_start_main+0xb4)[0x20000bb443e4]
[r229n16:99335] *** End of error message ***
terminate called after throwing an instance of 'std::runtime_error'
  what():  Kokkos failed to allocate memory for label "atom:f".  Allocation using MemorySpace named "Cuda" failed with the following error:  Allocation of size 70.09 K failed, likely due to insufficient memory.  (The allocation mechanism was cudaMalloc().  The Cuda allocation returned the error code ""cudaErrorMemoryAllocation".)

Traceback functionality not available

[r229n16:99337] *** Process received signal ***
[r229n16:99337] Signal: Aborted (6)
[r229n16:99337] Signal code:  (-6)
[r229n16:99337] [ 0] linux-vdso64.so.1(__kernel_sigtramp_rt64+0x0)[0x2000000504d8]
[r229n16:99337] [ 1] /lib64/power9/libc.so.6(gsignal+0xd8)[0x20000bb63798]
[r229n16:99337] [ 2] /lib64/power9/libc.so.6(abort+0x164)[0x20000bb43bac]
[r229n16:99337] [ 3] /cineca/prod/opt/compilers/gnu/8.4.0/none/lib64/libstdc++.so.6(_ZN9__gnu_cxx27__verbose_terminate_handlerEv+0x158)[0x20000b32bd38]
[r229n16:99337] [ 4] /cineca/prod/opt/compilers/gnu/8.4.0/none/lib64/libstdc++.so.6(+0xb6c44)[0x20000b326c44]
[r229n16:99337] [ 5] /cineca/prod/opt/compilers/gnu/8.4.0/none/lib64/libstdc++.so.6(_ZSt9terminatev+0x20)[0x20000b326d00]
[r229n16:99337] [ 6] /cineca/prod/opt/compilers/gnu/8.4.0/none/lib64/libstdc++.so.6(__cxa_throw+0x7c)[0x20000b3271dc]
[r229n16:99337] [ 7] lmp_kokkos_cuda_mpi(_ZN6Kokkos4Impl23throw_runtime_exceptionERKNSt7__cxx1112basic_stringIcSt11char_traitsIcESaIcEEE+0xac)[0x12bd189c]
[r229n16:99337] [ 8] lmp_kokkos_cuda_mpi(_ZN6Kokkos4Impl41safe_throw_allocation_with_header_failureERKNSt7__cxx1112basic_stringIcSt11char_traitsIcESaIcEEES8_RKNS_12Experimental26RawMemoryAllocationFailureE+0x224)[0x12be1654]
[r229n16:99337] [ 9] lmp_kokkos_cuda_mpi(_ZN6Kokkos4Impl30checked_allocation_with_headerINS_9CudaSpaceEEEPNS0_22SharedAllocationHeaderERKT_RKNSt7__cxx1112basic_stringIcSt11char_traitsIcESaIcEEEm+0x80)[0x12be1010]
[r229n16:99337] [10] lmp_kokkos_cuda_mpi(_ZN6Kokkos4Impl22SharedAllocationRecordINS_9CudaSpaceEvEC1ERKS2_RKNSt7__cxx1112basic_stringIcSt11char_traitsIcESaIcEEEmPFvPNS1_IvvEEE+0x4c)[0x12bdd35c]
[r229n16:99337] [11] lmp_kokkos_cuda_mpi(_ZN6Kokkos4ViewIA3_PdJNS_11LayoutRightENS_4CudaEvEEC2INSt7__cxx1112basic_stringIcSt11char_traitsIcESaIcEEEEERKT_NSt9enable_ifIXsrNS_4Impl13is_view_labelISD_EE5valueEKmE4typeEmmmmmmm+0x1c0)[0x10a166b0]
[r229n16:99337] [12] lmp_kokkos_cuda_mpi(_ZN6Kokkos8DualViewIA3_PdNS_11LayoutRightENS_4CudaEvE6resizeEmmmmmmmm+0xf8)[0x10a2b868]
[r229n16:99337] [13] lmp_kokkos_cuda_mpi(_ZN9LAMMPS_NS12MemoryKokkos11grow_kokkosIN6Kokkos8DualViewIA3_PdNS2_11LayoutRightENS2_4CudaEvEEEET_RS9_RPPNS9_10value_typeEiPKc+0x78)[0x10a2c7b8]
[r229n16:99337] [14] lmp_kokkos_cuda_mpi(_ZN9LAMMPS_NS19AtomVecAtomicKokkos4growEi+0x27c)[0x1262e9dc]
[r229n16:99337] [15] lmp_kokkos_cuda_mpi(_ZN9LAMMPS_NS19AtomVecAtomicKokkos20unpack_border_kokkosERKiS2_RKN6Kokkos8DualViewIPPdNS3_11LayoutRightENS3_4CudaEvEENS_14ExecutionSpaceE+0x8c)[0x12629a4c]
[r229n16:99337] [16] lmp_kokkos_cuda_mpi(_ZN9LAMMPS_NS10CommKokkos14borders_deviceIN6Kokkos4CudaEEEvv+0x5b0)[0x11258710]
[r229n16:99337] [17] lmp_kokkos_cuda_mpi(_ZN9LAMMPS_NS10CommKokkos7bordersEv+0x248)[0x1124a798]
[r229n16:99337] [18] lmp_kokkos_cuda_mpi(_ZN9LAMMPS_NS12VerletKokkos5setupEi+0x1d0)[0x12b3e0c0]
[r229n16:99337] [19] lmp_kokkos_cuda_mpi(_ZN9LAMMPS_NS3Run7commandEiPPc+0x14fc)[0x1098148c]
[r229n16:99337] [20] lmp_kokkos_cuda_mpi(_ZN9LAMMPS_NS5Input15execute_commandEv+0x2bf0)[0x1091c6f0]
[r229n16:99337] [21] lmp_kokkos_cuda_mpi(_ZN9LAMMPS_NS5Input4fileEv+0x2b0)[0x1091d3b0]
[r229n16:99337] [22] lmp_kokkos_cuda_mpi(main+0x6c)[0x1086af4c]
[r229n16:99337] [23] /lib64/power9/libc.so.6(+0x241f8)[0x20000bb441f8]
[r229n16:99337] [24] /lib64/power9/libc.so.6(__libc_start_main+0xb4)[0x20000bb443e4]
[r229n16:99337] *** End of error message ***
terminate called after throwing an instance of 'std::runtime_error'
  what():  Kokkos failed to allocate memory for label "atom:f".  Allocation using MemorySpace named "Cuda" failed with the following error:  Allocation of size 70.09 K failed, likely due to insufficient memory.  (The allocation mechanism was cudaMalloc().  The Cuda allocation returned the error code ""cudaErrorMemoryAllocation".)

Traceback functionality not available

[r229n16:99336] *** Process received signal ***
[r229n16:99336] Signal: Aborted (6)
[r229n16:99336] Signal code:  (-6)
[r229n16:99336] [ 0] linux-vdso64.so.1(__kernel_sigtramp_rt64+0x0)[0x2000000504d8]
[r229n16:99336] [ 1] /lib64/power9/libc.so.6(gsignal+0xd8)[0x20000bb63798]
[r229n16:99336] [ 2] /lib64/power9/libc.so.6(abort+0x164)[0x20000bb43bac]
[r229n16:99336] [ 3] /cineca/prod/opt/compilers/gnu/8.4.0/none/lib64/libstdc++.so.6(_ZN9__gnu_cxx27__verbose_terminate_handlerEv+0x158)[0x20000b32bd38]
[r229n16:99336] [ 4] /cineca/prod/opt/compilers/gnu/8.4.0/none/lib64/libstdc++.so.6(+0xb6c44)[0x20000b326c44]
[r229n16:99336] [ 5] /cineca/prod/opt/compilers/gnu/8.4.0/none/lib64/libstdc++.so.6(_ZSt9terminatev+0x20)[0x20000b326d00]
[r229n16:99336] [ 6] /cineca/prod/opt/compilers/gnu/8.4.0/none/lib64/libstdc++.so.6(__cxa_throw+0x7c)[0x20000b3271dc]
[r229n16:99336] [ 7] lmp_kokkos_cuda_mpi(_ZN6Kokkos4Impl23throw_runtime_exceptionERKNSt7__cxx1112basic_stringIcSt11char_traitsIcESaIcEEE+0xac)[0x12bd189c]
[r229n16:99336] [ 8] lmp_kokkos_cuda_mpi(_ZN6Kokkos4Impl41safe_throw_allocation_with_header_failureERKNSt7__cxx1112basic_stringIcSt11char_traitsIcESaIcEEES8_RKNS_12Experimental26RawMemoryAllocationFailureE+0x224)[0x12be1654]
[r229n16:99336] [ 9] lmp_kokkos_cuda_mpi(_ZN6Kokkos4Impl30checked_allocation_with_headerINS_9CudaSpaceEEEPNS0_22SharedAllocationHeaderERKT_RKNSt7__cxx1112basic_stringIcSt11char_traitsIcESaIcEEEm+0x80)[0x12be1010]
[r229n16:99336] [10] lmp_kokkos_cuda_mpi(_ZN6Kokkos4Impl22SharedAllocationRecordINS_9CudaSpaceEvEC1ERKS2_RKNSt7__cxx1112basic_stringIcSt11char_traitsIcESaIcEEEmPFvPNS1_IvvEEE+0x4c)[0x12bdd35c]
[r229n16:99336] [11] lmp_kokkos_cuda_mpi(_ZN6Kokkos4ViewIA3_PdJNS_11LayoutRightENS_4CudaEvEEC2INSt7__cxx1112basic_stringIcSt11char_traitsIcESaIcEEEEERKT_NSt9enable_ifIXsrNS_4Impl13is_view_labelISD_EE5valueEKmE4typeEmmmmmmm+0x1c0)[0x10a166b0]
[r229n16:99336] [12] lmp_kokkos_cuda_mpi(_ZN6Kokkos8DualViewIA3_PdNS_11LayoutRightENS_4CudaEvE6resizeEmmmmmmmm+0xf8)[0x10a2b868]
[r229n16:99336] [13] lmp_kokkos_cuda_mpi(_ZN9LAMMPS_NS12MemoryKokkos11grow_kokkosIN6Kokkos8DualViewIA3_PdNS2_11LayoutRightENS2_4CudaEvEEEET_RS9_RPPNS9_10value_typeEiPKc+0x78)[0x10a2c7b8]
[r229n16:99336] [14] lmp_kokkos_cuda_mpi(_ZN9LAMMPS_NS19AtomVecAtomicKokkos4growEi+0x27c)[0x1262e9dc]
[r229n16:99336] [15] lmp_kokkos_cuda_mpi(_ZN9LAMMPS_NS19AtomVecAtomicKokkos20unpack_border_kokkosERKiS2_RKN6Kokkos8DualViewIPPdNS3_11LayoutRightENS3_4CudaEvEENS_14ExecutionSpaceE+0x8c)[0x12629a4c]
[r229n16:99336] [16] lmp_kokkos_cuda_mpi(_ZN9LAMMPS_NS10CommKokkos14borders_deviceIN6Kokkos4CudaEEEvv+0x5b0)[0x11258710]
[r229n16:99336] [17] lmp_kokkos_cuda_mpi(_ZN9LAMMPS_NS10CommKokkos7bordersEv+0x248)[0x1124a798]
[r229n16:99336] [18] lmp_kokkos_cuda_mpi(_ZN9LAMMPS_NS12VerletKokkos5setupEi+0x1d0)[0x12b3e0c0]
[r229n16:99336] [19] lmp_kokkos_cuda_mpi(_ZN9LAMMPS_NS3Run7commandEiPPc+0x14fc)[0x1098148c]
[r229n16:99336] [20] lmp_kokkos_cuda_mpi(_ZN9LAMMPS_NS5Input15execute_commandEv+0x2bf0)[0x1091c6f0]
[r229n16:99336] [21] lmp_kokkos_cuda_mpi(_ZN9LAMMPS_NS5Input4fileEv+0x2b0)[0x1091d3b0]
[r229n16:99336] [22] lmp_kokkos_cuda_mpi(main+0x6c)[0x1086af4c]
[r229n16:99336] [23] /lib64/power9/libc.so.6(+0x241f8)[0x20000bb441f8]
[r229n16:99336] [24] /lib64/power9/libc.so.6(__libc_start_main+0xb4)[0x20000bb443e4]
[r229n16:99336] *** End of error message ***
terminate called after throwing an instance of 'std::runtime_error'
  what():  Kokkos failed to allocate memory for label "atom:f".  Allocation using MemorySpace named "Cuda" failed with the following error:  Allocation of size 70.09 K failed, likely due to insufficient memory.  (The allocation mechanism was cudaMalloc().  The Cuda allocation returned the error code ""cudaErrorMemoryAllocation".)

Traceback functionality not available

[r229n16:99334] *** Process received signal ***
[r229n16:99334] Signal: Aborted (6)
[r229n16:99334] Signal code:  (-6)
[r229n16:99334] [ 0] linux-vdso64.so.1(__kernel_sigtramp_rt64+0x0)[0x2000000504d8]
[r229n16:99334] [ 1] /lib64/power9/libc.so.6(gsignal+0xd8)[0x20000bb63798]
[r229n16:99334] [ 2] /lib64/power9/libc.so.6(abort+0x164)[0x20000bb43bac]
[r229n16:99334] [ 3] /cineca/prod/opt/compilers/gnu/8.4.0/none/lib64/libstdc++.so.6(_ZN9__gnu_cxx27__verbose_terminate_handlerEv+0x158)[0x20000b32bd38]
[r229n16:99334] [ 4] /cineca/prod/opt/compilers/gnu/8.4.0/none/lib64/libstdc++.so.6(+0xb6c44)[0x20000b326c44]
[r229n16:99334] [ 5] /cineca/prod/opt/compilers/gnu/8.4.0/none/lib64/libstdc++.so.6(_ZSt9terminatev+0x20)[0x20000b326d00]
[r229n16:99334] [ 6] /cineca/prod/opt/compilers/gnu/8.4.0/none/lib64/libstdc++.so.6(__cxa_throw+0x7c)[0x20000b3271dc]
[r229n16:99334] [ 7] lmp_kokkos_cuda_mpi(_ZN6Kokkos4Impl23throw_runtime_exceptionERKNSt7__cxx1112basic_stringIcSt11char_traitsIcESaIcEEE+0xac)[0x12bd189c]
[r229n16:99334] [ 8] lmp_kokkos_cuda_mpi(_ZN6Kokkos4Impl41safe_throw_allocation_with_header_failureERKNSt7__cxx1112basic_stringIcSt11char_traitsIcESaIcEEES8_RKNS_12Experimental26RawMemoryAllocationFailureE+0x224)[0x12be1654]
[r229n16:99334] [ 9] lmp_kokkos_cuda_mpi(_ZN6Kokkos4Impl30checked_allocation_with_headerINS_9CudaSpaceEEEPNS0_22SharedAllocationHeaderERKT_RKNSt7__cxx1112basic_stringIcSt11char_traitsIcESaIcEEEm+0x80)[0x12be1010]
[r229n16:99334] [10] lmp_kokkos_cuda_mpi(_ZN6Kokkos4Impl22SharedAllocationRecordINS_9CudaSpaceEvEC1ERKS2_RKNSt7__cxx1112basic_stringIcSt11char_traitsIcESaIcEEEmPFvPNS1_IvvEEE+0x4c)[0x12bdd35c]
[r229n16:99334] [11] lmp_kokkos_cuda_mpi(_ZN6Kokkos4ViewIA3_PdJNS_11LayoutRightENS_4CudaEvEEC2INSt7__cxx1112basic_stringIcSt11char_traitsIcESaIcEEEEERKT_NSt9enable_ifIXsrNS_4Impl13is_view_labelISD_EE5valueEKmE4typeEmmmmmmm+0x1c0)[0x10a166b0]
[r229n16:99334] [12] lmp_kokkos_cuda_mpi(_ZN6Kokkos8DualViewIA3_PdNS_11LayoutRightENS_4CudaEvE6resizeEmmmmmmmm+0xf8)[0x10a2b868]
[r229n16:99334] [13] lmp_kokkos_cuda_mpi(_ZN9LAMMPS_NS12MemoryKokkos11grow_kokkosIN6Kokkos8DualViewIA3_PdNS2_11LayoutRightENS2_4CudaEvEEEET_RS9_RPPNS9_10value_typeEiPKc+0x78)[0x10a2c7b8]
[r229n16:99334] [14] lmp_kokkos_cuda_mpi(_ZN9LAMMPS_NS19AtomVecAtomicKokkos4growEi+0x27c)[0x1262e9dc]
[r229n16:99334] [15] lmp_kokkos_cuda_mpi(_ZN9LAMMPS_NS19AtomVecAtomicKokkos20unpack_border_kokkosERKiS2_RKN6Kokkos8DualViewIPPdNS3_11LayoutRightENS3_4CudaEvEENS_14ExecutionSpaceE+0x8c)[0x12629a4c]
[r229n16:99334] [16] lmp_kokkos_cuda_mpi(_ZN9LAMMPS_NS10CommKokkos14borders_deviceIN6Kokkos4CudaEEEvv+0x5b0)[0x11258710]
[r229n16:99334] [17] lmp_kokkos_cuda_mpi(_ZN9LAMMPS_NS10CommKokkos7bordersEv+0x248)[0x1124a798]
[r229n16:99334] [18] lmp_kokkos_cuda_mpi(_ZN9LAMMPS_NS12VerletKokkos5setupEi+0x1d0)[0x12b3e0c0]
[r229n16:99334] [19] lmp_kokkos_cuda_mpi(_ZN9LAMMPS_NS3Run7commandEiPPc+0x14fc)[0x1098148c]
[r229n16:99334] [20] lmp_kokkos_cuda_mpi(_ZN9LAMMPS_NS5Input15execute_commandEv+0x2bf0)[0x1091c6f0]
[r229n16:99334] [21] lmp_kokkos_cuda_mpi(_ZN9LAMMPS_NS5Input4fileEv+0x2b0)[0x1091d3b0]
[r229n16:99334] [22] lmp_kokkos_cuda_mpi(main+0x6c)[0x1086af4c]
[r229n16:99334] [23] /lib64/power9/libc.so.6(+0x241f8)[0x20000bb441f8]
[r229n16:99334] [24] /lib64/power9/libc.so.6(__libc_start_main+0xb4)[0x20000bb443e4]
[r229n16:99334] *** End of error message ***
--------------------------------------------------------------------------
Primary job  terminated normally, but 1 process returned
a non-zero exit code. Per user-direction, the job has been aborted.
--------------------------------------------------------------------------
--------------------------------------------------------------------------
mpirun noticed that process rank 42 with PID 25347 on node r233n16 exited on signal 6 (Aborted).
--------------------------------------------------------------------------
