LAMMPS (29 Sep 2021 - Update 1)
KOKKOS mode is enabled (../kokkos.cpp:97)
  will use up to 2 GPU(s) per node
  using 1 OpenMP thread(s) per MPI task
Reading data file ...
  orthogonal box = (0.0000000 0.0000000 0.0000000) to (436.86457 57.106480 57.106480)
  16 by 2 by 2 MPI processor grid
  reading atoms ...
  120800 atoms
  read_data CPU = 0.267 seconds
800 atoms in group source
800 atoms in group detector
0 atoms in group edge
0 atoms in group edge_buf
0 atoms in group buffer
Neighbor list info ...
  update every 1 steps, delay 10 steps, check yes
  max neighbors/atom: 2000, page size: 100000
  master list distance cutoff = 7.6
  ghost atom cutoff = 7.6
  binsize = 7.6, bins = 58 8 8
  1 neighbor lists, perpetual/occasional/extra = 1 0 0
  (1) pair eam/alloy/kk, perpetual
      attributes: full, newton off, kokkos_device
      pair build: full/bin/kk/device
      stencil: full/bin/3d
      bin: kk/device
Setting up Verlet run ...
  Unit style    : metal
  Current step  : 0
  Time step     : 0.001
Per MPI rank memory allocation (min/avg/max) = 1.869 | 1.985 | 2.011 Mbytes
Time Step Lx Pxx Pxy Pxz Ly Lz Pyy Pzz Pyz TotEng Temp Volume 
           0        0    436.86457    118.80219 -5.1802669e-13 -4.8621449e-13     57.10648     57.10648    -812.7081    -812.7081 3.1430983e-13   -497261.36            0    1424680.9 
Loop time of 0.00292537 on 64 procs for 0 steps with 120800 atoms

84.4% CPU use with 64 MPI tasks x 1 OpenMP threads

MPI task timing breakdown:
Section |  min time  |  avg time  |  max time  |%varavg| %total
---------------------------------------------------------------
Pair    | 0          | 0          | 0          |   0.0 |  0.00
Neigh   | 0          | 0          | 0          |   0.0 |  0.00
Comm    | 0          | 0          | 0          |   0.0 |  0.00
Output  | 0          | 0          | 0          |   0.0 |  0.00
Modify  | 0          | 0          | 0          |   0.0 |  0.00
Other   |            | 0.002925   |            |       |100.00

Nlocal:        1887.50 ave        2000 max        1600 min
Histogram: 4 0 0 0 0 0 0 56 0 4
Nghost:        5147.12 ave        5315 max        4353 min
Histogram: 4 0 0 4 0 0 0 16 4 36
Neighs:         0.00000 ave           0 max           0 min
Histogram: 64 0 0 0 0 0 0 0 0 0
FullNghs:      315025.0 ave      336000 max      252200 min
Histogram: 4 0 0 0 0 0 4 52 0 4

Total # of neighbors = 20161600
Ave neighs/atom = 166.90066
Neighbor list builds = 0
Dangerous builds = 0
shimiken 1
shimiken 2
shimiken 3
shimiken 4
shimiken 5
owari
