LAMMPS (29 Sep 2021 - Update 1)
KOKKOS mode is enabled (../kokkos.cpp:97)
  will use up to 2 GPU(s) per node
  using 1 OpenMP thread(s) per MPI task
Reading data file ...
  orthogonal box = (0.0000000 0.0000000 0.0000000) to (436.86457 57.106480 57.106480)
  16 by 2 by 2 MPI processor grid
  reading atoms ...
  120800 atoms
  read_data CPU = 0.396 seconds
WARNING: Using 'neigh_modify every 1 delay 0 check yes' setting during minimization (../min.cpp:188)
Neighbor list info ...
  update every 1 steps, delay 0 steps, check yes
  max neighbors/atom: 2000, page size: 100000
  master list distance cutoff = 7.6
  ghost atom cutoff = 7.6
  binsize = 7.6, bins = 58 8 8
  1 neighbor lists, perpetual/occasional/extra = 1 0 0
  (1) pair eam/alloy/kk, perpetual
      attributes: full, newton off, kokkos_device
      pair build: full/bin/kk/device
      stencil: full/bin/3d
      bin: kk/device
Setting up cg/kk style minimization ...
  Unit style    : metal
  Current step  : 0
WARNING: Fixes cannot yet send exchange data in Kokkos communication, switching to classic exchange/border communication (../comm_kokkos.cpp:581)
Per MPI rank memory allocation (min/avg/max) = 2.301 | 2.470 | 2.508 Mbytes
Step Temp E_pair E_mol TotEng Press 
       0            0   -497261.36            0   -497261.36   -502.20467 
     132            0    -497263.4            0    -497263.4   -621.23749 
Loop time of 14.6746 on 64 procs for 132 steps with 120800 atoms

84.7% CPU use with 64 MPI tasks x 1 OpenMP threads

Minimization stats:
  Stopping criterion = energy tolerance
  Energy initial, next-to-last, final = 
     -497261.355337392  -497263.401315488  -497263.401315488
  Force two-norm initial, final = 7.1080974 1.4103132e-05
  Force max component initial, final = 0.19826945 1.9250614e-07
  Final line search alpha, max atom move = 1.0000000 1.9250614e-07
  Iterations, force evaluations = 132 264

MPI task timing breakdown:
Section |  min time  |  avg time  |  max time  |%varavg| %total
---------------------------------------------------------------
Pair    | 8.0884     | 8.5954     | 9.0036     |   7.4 | 58.57
Neigh   | 0          | 0          | 0          |   0.0 |  0.00
Comm    | 3.378      | 3.5033     | 3.6206     |   3.2 | 23.87
Output  | 0          | 0          | 0          |   0.0 |  0.00
Modify  | 0          | 0          | 0          |   0.0 |  0.00
Other   |            | 2.576      |            |       | 17.55

Nlocal:        1887.50 ave        2000 max        1600 min
Histogram: 4 0 0 0 0 0 0 56 0 4
Nghost:        5147.12 ave        5315 max        4353 min
Histogram: 4 0 0 4 0 0 0 16 4 36
Neighs:         0.00000 ave           0 max           0 min
Histogram: 64 0 0 0 0 0 0 0 0 0
FullNghs:      315025.0 ave      336000 max      252200 min
Histogram: 4 0 0 0 0 0 4 52 0 4

Total # of neighbors = 20161600
Ave neighs/atom = 166.90066
Neighbor list builds = 0
Dangerous builds = 0
System init for write_data ...
Initial Length, L0: 436.864572
Setting up Verlet run ...
  Unit style    : metal
  Current step  : 0
  Time step     : 0.001
Per MPI rank memory allocation (min/avg/max) = 1.901 | 2.023 | 2.050 Mbytes
Step v_strain Temp v_p2 v_p3 v_p4 KinEng PotEng Press 
       0            0            0 -1.2782183e-08   0.09318563   0.09318563            0    -497263.4   -621.23749 
      50       0.0005 5.2542013e-05   0.11694594   0.16281744   0.16281744 0.00082041707   -497263.15   -1475.2694 
Loop time of 3.19759 on 64 procs for 50 steps with 120800 atoms

Performance: 1.351 ns/day, 17.764 hours/ns, 15.637 timesteps/s
83.4% CPU use with 64 MPI tasks x 1 OpenMP threads

MPI task timing breakdown:
Section |  min time  |  avg time  |  max time  |%varavg| %total
---------------------------------------------------------------
Pair    | 1.4315     | 1.6032     | 1.9693     |  12.6 | 50.14
Neigh   | 0          | 0          | 0          |   0.0 |  0.00
Comm    | 0.6298     | 0.70812    | 1.1172     |  14.7 | 22.15
Output  | 0.0046273  | 0.0046286  | 0.0046318  |   0.0 |  0.14
Modify  | 0.36771    | 0.7246     | 0.96657    |  22.5 | 22.66
Other   |            | 0.157      |            |       |  4.91

Nlocal:        1887.50 ave        2013 max        1590 min
Histogram: 4 0 0 0 0 0 2 54 0 4
Nghost:        5147.12 ave        5327 max        4342 min
Histogram: 4 0 0 4 0 0 0 16 4 36
Neighs:         0.00000 ave           0 max           0 min
Histogram: 64 0 0 0 0 0 0 0 0 0
FullNghs:      315025.0 ave      338184 max      250301 min
Histogram: 4 0 0 0 0 3 1 43 9 4

Total # of neighbors = 20161600
Ave neighs/atom = 166.90066
Neighbor list builds = 0
Dangerous builds = 0
All done
Total wall time: 0:00:28
