LAMMPS (29 Sep 2021 - Update 1)
KOKKOS mode is enabled (../kokkos.cpp:97)
  will use up to 2 GPU(s) per node
  using 1 OpenMP thread(s) per MPI task
Reading data file ...
  orthogonal box = (0.0000000 0.0000000 0.0000000) to (436.86457 57.106480 57.106480)
  16 by 2 by 2 MPI processor grid
  reading atoms ...
  120800 atoms
  read_data CPU = 0.307 seconds
WARNING: Using 'neigh_modify every 1 delay 0 check yes' setting during minimization (../min.cpp:188)
Neighbor list info ...
  update every 1 steps, delay 0 steps, check yes
  max neighbors/atom: 2000, page size: 100000
  master list distance cutoff = 7.6
  ghost atom cutoff = 7.6
  binsize = 7.6, bins = 58 8 8
  1 neighbor lists, perpetual/occasional/extra = 1 0 0
  (1) pair eam/alloy/kk, perpetual
      attributes: full, newton off, kokkos_device
      pair build: full/bin/kk/device
      stencil: full/bin/3d
      bin: kk/device
Setting up cg/kk style minimization ...
  Unit style    : metal
  Current step  : 0
WARNING: Fixes cannot yet send exchange data in Kokkos communication, switching to classic exchange/border communication (../comm_kokkos.cpp:581)
Per MPI rank memory allocation (min/avg/max) = 2.301 | 2.470 | 2.508 Mbytes
Step Temp E_pair E_mol TotEng Press 
       0            0   -497261.36            0   -497261.36   -502.20467 
     130            0    -497263.4            0    -497263.4   -621.23727 
Loop time of 14.5411 on 64 procs for 130 steps with 120800 atoms

84.0% CPU use with 64 MPI tasks x 1 OpenMP threads

Minimization stats:
  Stopping criterion = energy tolerance
  Energy initial, next-to-last, final = 
     -497261.355337392  -497263.401315488  -497263.401315488
  Force two-norm initial, final = 7.1080974 2.4808045e-05
  Force max component initial, final = 0.19826945 3.5638282e-07
  Final line search alpha, max atom move = 1.0000000 3.5638282e-07
  Iterations, force evaluations = 130 260

MPI task timing breakdown:
Section |  min time  |  avg time  |  max time  |%varavg| %total
---------------------------------------------------------------
Pair    | 7.8802     | 8.5331     | 8.9504     |   7.8 | 58.68
Neigh   | 0          | 0          | 0          |   0.0 |  0.00
Comm    | 3.2451     | 3.4746     | 3.5923     |   4.1 | 23.89
Output  | 0          | 0          | 0          |   0.0 |  0.00
Modify  | 0          | 0          | 0          |   0.0 |  0.00
Other   |            | 2.533      |            |       | 17.42

Nlocal:        1887.50 ave        2000 max        1600 min
Histogram: 4 0 0 0 0 0 0 56 0 4
Nghost:        5147.12 ave        5315 max        4353 min
Histogram: 4 0 0 4 0 0 0 16 4 36
Neighs:         0.00000 ave           0 max           0 min
Histogram: 64 0 0 0 0 0 0 0 0 0
FullNghs:      315025.0 ave      336000 max      252200 min
Histogram: 4 0 0 0 0 0 4 52 0 4

Total # of neighbors = 20161600
Ave neighs/atom = 166.90066
Neighbor list builds = 0
Dangerous builds = 0
System init for write_data ...
Initial Length, L0: 436.864572
Setting up Verlet run ...
  Unit style    : metal
  Current step  : 0
  Time step     : 0.001
Per MPI rank memory allocation (min/avg/max) = 1.901 | 2.023 | 2.050 Mbytes
Step v_strain Temp v_p2 v_p3 v_p4 KinEng PotEng Press 
       0            0            0 -4.4085588e-08  0.093185612  0.093185612            0    -497263.4   -621.23727 
      50       0.0005 5.254212e-05   0.11694591   0.16281742   0.16281742 0.00082041874   -497263.15   -1475.2692 
Loop time of 2.77124 on 64 procs for 50 steps with 120800 atoms

Performance: 1.559 ns/day, 15.396 hours/ns, 18.042 timesteps/s
84.8% CPU use with 64 MPI tasks x 1 OpenMP threads

MPI task timing breakdown:
Section |  min time  |  avg time  |  max time  |%varavg| %total
---------------------------------------------------------------
Pair    | 1.3343     | 1.4731     | 1.7881     |  12.3 | 53.16
Neigh   | 0          | 0          | 0          |   0.0 |  0.00
Comm    | 0.65161    | 0.74075    | 1.1131     |  14.4 | 26.73
Output  | 0.0036845  | 0.0067291  | 0.010027   |   2.5 |  0.24
Modify  | 0.21866    | 0.32389    | 0.39712    |   9.6 | 11.69
Other   |            | 0.2268     |            |       |  8.18

Nlocal:        1887.50 ave        2005 max        1593 min
Histogram: 4 0 0 0 0 0 0 56 0 4
Nghost:        5147.12 ave        5328 max        4343 min
Histogram: 4 0 0 4 0 0 0 16 4 36
Neighs:         0.00000 ave           0 max           0 min
Histogram: 64 0 0 0 0 0 0 0 0 0
FullNghs:      315025.0 ave      336840 max      251279 min
Histogram: 4 0 0 0 0 2 2 38 14 4

Total # of neighbors = 20161600
Ave neighs/atom = 166.90066
Neighbor list builds = 0
Dangerous builds = 0
All done
Total wall time: 0:00:28
