LAMMPS (29 Sep 2021 - Update 1)
KOKKOS mode is enabled (../kokkos.cpp:97)
  will use up to 4 GPU(s) per node
terminate called after throwing an instance of 'std::runtime_error'
  what():  cudaGetDeviceCount(&m_cudaDevCount) error( cudaErrorNoDevice): no CUDA-capable device is detected ../../lib/kokkos/core/src/Cuda/Kokkos_Cuda_Instance.cpp:224
Traceback functionality not available

[r231n01:55313] *** Process received signal ***
[r231n01:55313] Signal: Aborted (6)
[r231n01:55313] Signal code:  (-6)
[r231n01:55313] [ 0] linux-vdso64.so.1(__kernel_sigtramp_rt64+0x0)[0x2000000504d8]
[r231n01:55313] [ 1] terminate called after throwing an instance of 'std::runtime_error'
  what():  cudaGetDeviceCount(&m_cudaDevCount) error( cudaErrorNoDevice): no CUDA-capable device is detected ../../lib/kokkos/core/src/Cuda/Kokkos_Cuda_Instance.cpp:224
Traceback functionality not available

[r231n01:55315] *** Process received signal ***
[r231n01:55315] Signal: Aborted (6)
[r231n01:55315] Signal code:  (-6)
[r231n01:55315] [ 0] linux-vdso64.so.1(__kernel_sigtramp_rt64+0x0)[0x2000000504d8]
[r231n01:55315] [ 1] terminate called after throwing an instance of 'std::runtime_error'
  what():  cudaGetDeviceCount(&m_cudaDevCount) error( cudaErrorNoDevice): no CUDA-capable device is detected ../../lib/kokkos/core/src/Cuda/Kokkos_Cuda_Instance.cpp:224
Traceback functionality not available

[r231n01:55293] *** Process received signal ***
[r231n01:55293] Signal: Aborted (6)
[r231n01:55293] Signal code:  (-6)
[r231n01:55293] [ 0] linux-vdso64.so.1(__kernel_sigtramp_rt64+0x0)[0x2000000504d8]
[r231n01:55293] [ 1] terminate called after throwing an instance of 'std::runtime_error'
  what():  cudaGetDeviceCount(&m_cudaDevCount) error( cudaErrorNoDevice): no CUDA-capable device is detected ../../lib/kokkos/core/src/Cuda/Kokkos_Cuda_Instance.cpp:224
Traceback functionality not available

[r231n01:55298] *** Process received signal ***
[r231n01:55298] Signal: Aborted (6)
[r231n01:55298] Signal code:  (-6)
[r231n01:55298] [ 0] linux-vdso64.so.1(__kernel_sigtramp_rt64+0x0)[0x2000000504d8]
[r231n01:55298] [ 1] terminate called after throwing an instance of 'std::runtime_error'
  what():  cudaGetDeviceCount(&m_cudaDevCount) error( cudaErrorNoDevice): no CUDA-capable device is detected ../../lib/kokkos/core/src/Cuda/Kokkos_Cuda_Instance.cpp:224
Traceback functionality not available

[r231n01:55304] *** Process received signal ***
[r231n01:55304] Signal: Aborted (6)
[r231n01:55304] Signal code:  (-6)
[r231n01:55304] [ 0] linux-vdso64.so.1(__kernel_sigtramp_rt64+0x0)[0x2000000504d8]
[r231n01:55304] [ 1] terminate called after throwing an instance of 'std::runtime_error'
  what():  cudaGetDeviceCount(&m_cudaDevCount) error( cudaErrorNoDevice): no CUDA-capable device is detected ../../lib/kokkos/core/src/Cuda/Kokkos_Cuda_Instance.cpp:224
Traceback functionality not available

[r231n01:55307] *** Process received signal ***
[r231n01:55307] Signal: Aborted (6)
[r231n01:55307] Signal code:  (-6)
[r231n01:55307] [ 0] linux-vdso64.so.1(__kernel_sigtramp_rt64+0x0)[0x2000000504d8]
[r231n01:55307] [ 1] /lib64/power9/libc.so.6(gsignal+0xd8)[0x20000bb63798]
[r231n01:55307] [ 2] terminate called after throwing an instance of 'std::runtime_error'
  what():  cudaGetDeviceCount(&m_cudaDevCount) error( cudaErrorNoDevice): no CUDA-capable device is detected ../../lib/kokkos/core/src/Cuda/Kokkos_Cuda_Instance.cpp:224
Traceback functionality not available

[r231n01:55320] *** Process received signal ***
[r231n01:55320] Signal: Aborted (6)
[r231n01:55320] Signal code:  (-6)
[r231n01:55320] [ 0] linux-vdso64.so.1(__kernel_sigtramp_rt64+0x0)[0x2000000504d8]
[r231n01:55320] [ 1] /lib64/power9/libc.so.6(gsignal+0xd8)[0x20000bb63798]
[r231n01:55320] [ 2] terminate called after throwing an instance of 'std::runtime_error'
terminate called after throwing an instance of 'std::runtime_error'
  what():  cudaGetDeviceCount(&m_cudaDevCount) error( cudaErrorNoDevice): no CUDA-capable device is detected ../../lib/kokkos/core/src/Cuda/Kokkos_Cuda_Instance.cpp:224
Traceback functionality not available

[r231n01:55295] *** Process received signal ***
[r231n01:55295] Signal: Aborted (6)
[r231n01:55295] Signal code:  (-6)
[r231n01:55295] [ 0] linux-vdso64.so.1(__kernel_sigtramp_rt64+0x0)[0x2000000504d8]
[r231n01:55295] [ 1] /lib64/power9/libc.so.6(gsignal+0xd8)[0x20000bb63798]
/lib64/power9/libc.so.6(gsignal+0xd8)[0x20000bb63798]
[r231n01:55315] [ 2] /lib64/power9/libc.so.6(abort+0x164)[0x20000bb43bac]
[r231n01:55315] [ 3] terminate called after throwing an instance of 'std::runtime_error'
  what():  cudaGetDeviceCount(&m_cudaDevCount) error( cudaErrorNoDevice): no CUDA-capable device is detected ../../lib/kokkos/core/src/Cuda/Kokkos_Cuda_Instance.cpp:224
Traceback functionality not available

[r231n01:55300] *** Process received signal ***
[r231n01:55300] Signal: Aborted (6)
[r231n01:55300] Signal code:  (-6)
[r231n01:55300] [ 0] linux-vdso64.so.1(__kernel_sigtramp_rt64+0x0)[0x2000000504d8]
[r231n01:55300] [ 1] /lib64/power9/libc.so.6(gsignal+0xd8)[0x20000bb63798]
[r231n01:55300] [ 2] /lib64/power9/libc.so.6(gsignal+0xd8)[0x20000bb63798]
[r231n01:55293] [ 2] /lib64/power9/libc.so.6(abort+0x164)[0x20000bb43bac]
[r231n01:55293] [ 3] terminate called after throwing an instance of 'std::runtime_error'
  what():  cudaGetDeviceCount(&m_cudaDevCount) error( cudaErrorNoDevice): no CUDA-capable device is detected ../../lib/kokkos/core/src/Cuda/Kokkos_Cuda_Instance.cpp:224
Traceback functionality not available

[r231n01:55297] *** Process received signal ***
terminate called after throwing an instance of 'std::runtime_error'
  what():  cudaGetDeviceCount(&m_cudaDevCount) error( cudaErrorNoDevice): no CUDA-capable device is detected ../../lib/kokkos/core/src/Cuda/Kokkos_Cuda_Instance.cpp:224
Traceback functionality not available

[r231n01:55301] *** Process received signal ***
[r231n01:55301] Signal: Aborted (6)
[r231n01:55301] Signal code:  (-6)
[r231n01:55301] [ 0] linux-vdso64.so.1(__kernel_sigtramp_rt64+0x0)[0x2000000504d8]
[r231n01:55301] [ 1] /lib64/power9/libc.so.6(gsignal+0xd8)[0x20000bb63798]
[r231n01:55301] [ 2] /lib64/power9/libc.so.6(gsignal+0xd8)[0x20000bb63798]
[r231n01:55298] [ 2] /lib64/power9/libc.so.6(abort+0x164)[0x20000bb43bac]
[r231n01:55298] [ 3] terminate called after throwing an instance of 'std::runtime_error'
  what():  cudaGetDeviceCount(&m_cudaDevCount) error( cudaErrorNoDevice): no CUDA-capable device is detected ../../lib/kokkos/core/src/Cuda/Kokkos_Cuda_Instance.cpp:224
Traceback functionality not available

[r231n01:55305] *** Process received signal ***
[r231n01:55305] Signal: Aborted (6)
[r231n01:55305] Signal code:  (-6)
[r231n01:55305] [ 0] linux-vdso64.so.1(__kernel_sigtramp_rt64+0x0)[0x2000000504d8]
[r231n01:55305] [ 1] terminate called after throwing an instance of 'std::runtime_error'
  what():  cudaGetDeviceCount(&m_cudaDevCount) error( cudaErrorNoDevice): no CUDA-capable device is detected ../../lib/kokkos/core/src/Cuda/Kokkos_Cuda_Instance.cpp:224
Traceback functionality not available

/lib64/power9/libc.so.6(gsignal+0xd8)[0x20000bb63798]
[r231n01:55304] [ 2] /lib64/power9/libc.so.6(abort+0x164)[0x20000bb43bac]
[r231n01:55304] [ 3] terminate called after throwing an instance of 'std::runtime_error'
  what():  cudaGetDeviceCount(&m_cudaDevCount) error( cudaErrorNoDevice): no CUDA-capable device is detected ../../lib/kokkos/core/src/Cuda/Kokkos_Cuda_Instance.cpp:224
Traceback functionality not available

[r231n01:55309] *** Process received signal ***
[r231n01:55309] Signal: Aborted (6)
[r231n01:55309] Signal code:  (-6)
[r231n01:55309] [ 0] linux-vdso64.so.1(__kernel_sigtramp_rt64+0x0)[0x2000000504d8]
[r231n01:55309] [ 1] /lib64/power9/libc.so.6(gsignal+0xd8)[0x20000bb63798]
[r231n01:55309] [ 2] /lib64/power9/libc.so.6(abort+0x164)[0x20000bb43bac]
[r231n01:55309] [ 3] terminate called after throwing an instance of 'std::runtime_error'
  what():  cudaGetDeviceCount(&m_cudaDevCount) error( cudaErrorNoDevice): no CUDA-capable device is detected ../../lib/kokkos/core/src/Cuda/Kokkos_Cuda_Instance.cpp:224
Traceback functionality not available

[r231n01:55312] *** Process received signal ***
[r231n01:55312] Signal: Aborted (6)
[r231n01:55312] Signal code:  (-6)
[r231n01:55312] [ 0] linux-vdso64.so.1(__kernel_sigtramp_rt64+0x0)[0x2000000504d8]
[r231n01:55312] [ 1] /lib64/power9/libc.so.6(gsignal+0xd8)[0x20000bb63798]
[r231n01:55312] [ 2] /lib64/power9/libc.so.6(abort+0x164)[0x20000bb43bac]
[r231n01:55312] [ 3] /lib64/power9/libc.so.6(gsignal+0xd8)[0x20000bb63798]
[r231n01:55313] [ 2] /lib64/power9/libc.so.6(abort+0x164)[0x20000bb43bac]
[r231n01:55313] [ 3] terminate called after throwing an instance of 'std::runtime_error'
  what():  cudaGetDeviceCount(&m_cudaDevCount) error( cudaErrorNoDevice): no CUDA-capable device is detected ../../lib/kokkos/core/src/Cuda/Kokkos_Cuda_Instance.cpp:224
Traceback functionality not available

[r231n01:55316] *** Process received signal ***
[r231n01:55316] Signal: Aborted (6)
[r231n01:55316] Signal code:  (-6)
terminate called after throwing an instance of 'std::runtime_error'
  what():  cudaGetDeviceCount(&m_cudaDevCount) error( cudaErrorNoDevice): no CUDA-capable device is detected ../../lib/kokkos/core/src/Cuda/Kokkos_Cuda_Instance.cpp:224
Traceback functionality not available

[r231n01:55294] *** Process received signal ***
[r231n01:55294] Signal: Aborted (6)
[r231n01:55294] Signal code:  (-6)
[r231n01:55294] [ 0] linux-vdso64.so.1(__kernel_sigtramp_rt64+0x0)[0x2000000504d8]
[r231n01:55294] [ 1] /lib64/power9/libc.so.6(gsignal+0xd8)[0x20000bb63798]
[r231n01:55294] [ 2] [r231n01:55295] [ 2] /lib64/power9/libc.so.6(abort+0x164)[0x20000bb43bac]
[r231n01:55295] [ 3] /cineca/prod/opt/compilers/gnu/8.4.0/none/lib64/libstdc++.so.6(_ZN9__gnu_cxx27__verbose_terminate_handlerEv+0x158)[0x20000b32bd38]
[r231n01:55295] [ 4] /cineca/prod/opt/compilers/gnu/8.4.0/none/lib64/libstdc++.so.6(_ZN9__gnu_cxx27__verbose_terminate_handlerEv+0x158)[0x20000b32bd38]
[r231n01:55315] [ 4] /cineca/prod/opt/compilers/gnu/8.4.0/none/lib64/libstdc++.so.6(+0xb6c44)[0x20000b326c44]
[r231n01:55315] [ 5] /cineca/prod/opt/compilers/gnu/8.4.0/none/lib64/libstdc++.so.6(_ZSt9terminatev+0x20)[0x20000b326d00]
[r231n01:55315] [ 6] /lib64/power9/libc.so.6(abort+0x164)[0x20000bb43bac]
[r231n01:55300] [ 3] /cineca/prod/opt/compilers/gnu/8.4.0/none/lib64/libstdc++.so.6(_ZN9__gnu_cxx27__verbose_terminate_handlerEv+0x158)[0x20000b32bd38]
[r231n01:55300] [ 4] /cineca/prod/opt/compilers/gnu/8.4.0/none/lib64/libstdc++.so.6(+0xb6c44)[0x20000b326c44]
[r231n01:55300] [ 5] /cineca/prod/opt/compilers/gnu/8.4.0/none/lib64/libstdc++.so.6(_ZN9__gnu_cxx27__verbose_terminate_handlerEv+0x158)[0x20000b32bd38]
[r231n01:55293] [ 4] /cineca/prod/opt/compilers/gnu/8.4.0/none/lib64/libstdc++.so.6(+0xb6c44)[0x20000b326c44]
[r231n01:55293] [ 5] [r231n01:55297] Signal: Aborted (6)
[r231n01:55297] Signal code:  (-6)
[r231n01:55297] [ 0] linux-vdso64.so.1(__kernel_sigtramp_rt64+0x0)[0x2000000504d8]
[r231n01:55297] [ 1] /lib64/power9/libc.so.6(gsignal+0xd8)[0x20000bb63798]
[r231n01:55297] [ 2] /lib64/power9/libc.so.6(abort+0x164)[0x20000bb43bac]
[r231n01:55297] [ 3] /cineca/prod/opt/compilers/gnu/8.4.0/none/lib64/libstdc++.so.6(_ZN9__gnu_cxx27__verbose_terminate_handlerEv+0x158)[0x20000b32bd38]
[r231n01:55297] [ 4] /lib64/power9/libc.so.6(abort+0x164)[0x20000bb43bac]
[r231n01:55301] [ 3] /cineca/prod/opt/compilers/gnu/8.4.0/none/lib64/libstdc++.so.6(_ZN9__gnu_cxx27__verbose_terminate_handlerEv+0x158)[0x20000b32bd38]
[r231n01:55301] [ 4] /cineca/prod/opt/compilers/gnu/8.4.0/none/lib64/libstdc++.so.6(+0xb6c44)[0x20000b326c44]
[r231n01:55301] [ 5] terminate called after throwing an instance of 'std::runtime_error'
  what():  cudaGetDeviceCount(&m_cudaDevCount) error( cudaErrorNoDevice): no CUDA-capable device is detected ../../lib/kokkos/core/src/Cuda/Kokkos_Cuda_Instance.cpp:224
Traceback functionality not available

[r231n01:55303] *** Process received signal ***
[r231n01:55303] Signal: Aborted (6)
[r231n01:55303] Signal code:  (-6)
[r231n01:55303] [ 0] linux-vdso64.so.1(__kernel_sigtramp_rt64+0x0)[0x2000000504d8]
[r231n01:55303] [ 1] /lib64/power9/libc.so.6(gsignal+0xd8)[0x20000bb63798]
[r231n01:55303] [ 2] /lib64/power9/libc.so.6(abort+0x164)[0x20000bb43bac]
[r231n01:55303] [ 3] /cineca/prod/opt/compilers/gnu/8.4.0/none/lib64/libstdc++.so.6(_ZN9__gnu_cxx27__verbose_terminate_handlerEv+0x158)[0x20000b32bd38]
[r231n01:55298] [ 4] /cineca/prod/opt/compilers/gnu/8.4.0/none/lib64/libstdc++.so.6(+0xb6c44)[0x20000b326c44]
[r231n01:55298] [ 5] /lib64/power9/libc.so.6(gsignal+0xd8)[0x20000bb63798]
[r231n01:55305] [ 2] /lib64/power9/libc.so.6(abort+0x164)[0x20000bb43bac]
[r231n01:55305] [ 3] /cineca/prod/opt/compilers/gnu/8.4.0/none/lib64/libstdc++.so.6(_ZN9__gnu_cxx27__verbose_terminate_handlerEv+0x158)[0x20000b32bd38]
[r231n01:55305] [ 4] /cineca/prod/opt/compilers/gnu/8.4.0/none/lib64/libstdc++.so.6(+0xb6c44)[0x20000b326c44]
[r231n01:55305] [ 5] [r231n01:55306] *** Process received signal ***
[r231n01:55306] Signal: Aborted (6)
[r231n01:55306] Signal code:  (-6)
[r231n01:55306] [ 0] linux-vdso64.so.1(__kernel_sigtramp_rt64+0x0)[0x2000000504d8]
[r231n01:55306] [ 1] /lib64/power9/libc.so.6(gsignal+0xd8)[0x20000bb63798]
[r231n01:55306] [ 2] /lib64/power9/libc.so.6(abort+0x164)[0x20000bb43bac]
[r231n01:55306] [ 3] /cineca/prod/opt/compilers/gnu/8.4.0/none/lib64/libstdc++.so.6(_ZN9__gnu_cxx27__verbose_terminate_handlerEv+0x158)[0x20000b32bd38]
[r231n01:55306] [ 4] /cineca/prod/opt/compilers/gnu/8.4.0/none/lib64/libstdc++.so.6(_ZN9__gnu_cxx27__verbose_terminate_handlerEv+0x158)[0x20000b32bd38]
[r231n01:55304] [ 4] /cineca/prod/opt/compilers/gnu/8.4.0/none/lib64/libstdc++.so.6(+0xb6c44)[0x20000b326c44]
[r231n01:55304] [ 5] /cineca/prod/opt/compilers/gnu/8.4.0/none/lib64/libstdc++.so.6(_ZSt9terminatev+0x20)[0x20000b326d00]
[r231n01:55304] [ 6] terminate called after throwing an instance of 'std::runtime_error'
  what():  cudaGetDeviceCount(&m_cudaDevCount) error( cudaErrorNoDevice): no CUDA-capable device is detected ../../lib/kokkos/core/src/Cuda/Kokkos_Cuda_Instance.cpp:224
Traceback functionality not available

[r231n01:55311] *** Process received signal ***
[r231n01:55311] Signal: Aborted (6)
[r231n01:55311] Signal code:  (-6)
[r231n01:55311] [ 0] linux-vdso64.so.1(__kernel_sigtramp_rt64+0x0)[0x2000000504d8]
[r231n01:55311] [ 1] /lib64/power9/libc.so.6(gsignal+0xd8)[0x20000bb63798]
[r231n01:55311] [ 2] /lib64/power9/libc.so.6(abort+0x164)[0x20000bb43bac]
[r231n01:55311] [ 3] /cineca/prod/opt/compilers/gnu/8.4.0/none/lib64/libstdc++.so.6(_ZN9__gnu_cxx27__verbose_terminate_handlerEv+0x158)[0x20000b32bd38]
[r231n01:55309] [ 4] /cineca/prod/opt/compilers/gnu/8.4.0/none/lib64/libstdc++.so.6(+0xb6c44)[0x20000b326c44]
[r231n01:55309] [ 5] /cineca/prod/opt/compilers/gnu/8.4.0/none/lib64/libstdc++.so.6(_ZSt9terminatev+0x20)[0x20000b326d00]
[r231n01:55309] [ 6] /cineca/prod/opt/compilers/gnu/8.4.0/none/lib64/libstdc++.so.6(_ZN9__gnu_cxx27__verbose_terminate_handlerEv+0x158)[0x20000b32bd38]
[r231n01:55312] [ 4] /cineca/prod/opt/compilers/gnu/8.4.0/none/lib64/libstdc++.so.6(+0xb6c44)[0x20000b326c44]
[r231n01:55312] [ 5] /cineca/prod/opt/compilers/gnu/8.4.0/none/lib64/libstdc++.so.6(_ZSt9terminatev+0x20)[0x20000b326d00]
[r231n01:55312] [ 6] /cineca/prod/opt/compilers/gnu/8.4.0/none/lib64/libstdc++.so.6(__cxa_throw+0x7c)[0x20000b3271dc]
[r231n01:55312] [ 7] /cineca/prod/opt/compilers/gnu/8.4.0/none/lib64/libstdc++.so.6(_ZN9__gnu_cxx27__verbose_terminate_handlerEv+0x158)[0x20000b32bd38]
[r231n01:55313] [ 4] /cineca/prod/opt/compilers/gnu/8.4.0/none/lib64/libstdc++.so.6(+0xb6c44)[0x20000b326c44]
[r231n01:55313] [ 5] terminate called after throwing an instance of 'std::runtime_error'
  what():  cudaGetDeviceCount(&m_cudaDevCount) error( cudaErrorNoDevice): no CUDA-capable device is detected ../../lib/kokkos/core/src/Cuda/Kokkos_Cuda_Instance.cpp:224
Traceback functionality not available

[r231n01:55317] *** Process received signal ***
[r231n01:55317] Signal: Aborted (6)
[r231n01:55317] Signal code:  (-6)
[r231n01:55317] [ 0] linux-vdso64.so.1(__kernel_sigtramp_rt64+0x0)[0x2000000504d8]
[r231n01:55317] [ 1] /lib64/power9/libc.so.6(gsignal+0xd8)[0x20000bb63798]
[r231n01:55317] [ 2] /lib64/power9/libc.so.6(abort+0x164)[0x20000bb43bac]
[r231n01:55317] [ 3] terminate called after throwing an instance of 'std::runtime_error'
  what():  cudaGetDeviceCount(&m_cudaDevCount) error( cudaErrorNoDevice): no CUDA-capable device is detected ../../lib/kokkos/core/src/Cuda/Kokkos_Cuda_Instance.cpp:224
Traceback functionality not available

[r231n01:55318] *** Process received signal ***
[r231n01:55318] Signal: Aborted (6)
[r231n01:55318] Signal code:  (-6)
[r231n01:55318] [ 0] linux-vdso64.so.1(__kernel_sigtramp_rt64+0x0)[0x2000000504d8]
[r231n01:55318] [ 1] /lib64/power9/libc.so.6(gsignal+0xd8)[0x20000bb63798]
[r231n01:55318] [ 2] /lib64/power9/libc.so.6(abort+0x164)[0x20000bb43bac]
[r231n01:55318] [ 3] /cineca/prod/opt/compilers/gnu/8.4.0/none/lib64/libstdc++.so.6(_ZN9__gnu_cxx27__verbose_terminate_handlerEv+0x158)[0x20000b32bd38]
[r231n01:55318] [ 4] terminate called after throwing an instance of 'std::runtime_error'
  what():  cudaGetDeviceCount(&m_cudaDevCount) error( cudaErrorNoDevice): no CUDA-capable device is detected ../../lib/kokkos/core/src/Cuda/Kokkos_Cuda_Instance.cpp:224
Traceback functionality not available

[r231n01:55319] *** Process received signal ***
[r231n01:55319] Signal: Aborted (6)
[r231n01:55319] Signal code:  (-6)
[r231n01:55319] [ 0] linux-vdso64.so.1(__kernel_sigtramp_rt64+0x0)[0x2000000504d8]
[r231n01:55319] [ 1] /lib64/power9/libc.so.6(gsignal+0xd8)[0x20000bb63798]
[r231n01:55319] [ 2] /lib64/power9/libc.so.6(abort+0x164)[0x20000bb43bac]
[r231n01:55319] [ 3] [r231n01:55316] [ 0] linux-vdso64.so.1(__kernel_sigtramp_rt64+0x0)[0x2000000504d8]
[r231n01:55316] [ 1] /lib64/power9/libc.so.6(gsignal+0xd8)[0x20000bb63798]
[r231n01:55316] [ 2] /lib64/power9/libc.so.6(abort+0x164)[0x20000bb43bac]
[r231n01:55316] [ 3] /cineca/prod/opt/compilers/gnu/8.4.0/none/lib64/libstdc++.so.6(_ZN9__gnu_cxx27__verbose_terminate_handlerEv+0x158)[0x20000b32bd38]
[r231n01:55316] [ 4] /lib64/power9/libc.so.6(abort+0x164)[0x20000bb43bac]
[r231n01:55307] [ 3] /cineca/prod/opt/compilers/gnu/8.4.0/none/lib64/libstdc++.so.6(_ZN9__gnu_cxx27__verbose_terminate_handlerEv+0x158)[0x20000b32bd38]
[r231n01:55307] [ 4] /cineca/prod/opt/compilers/gnu/8.4.0/none/lib64/libstdc++.so.6(+0xb6c44)[0x20000b326c44]
[r231n01:55307] [ 5] /cineca/prod/opt/compilers/gnu/8.4.0/none/lib64/libstdc++.so.6(_ZSt9terminatev+0x20)[0x20000b326d00]
[r231n01:55307] [ 6] terminate called after throwing an instance of 'std::runtime_error'
  what():  cudaGetDeviceCount(&m_cudaDevCount) error( cudaErrorNoDevice): no CUDA-capable device is detected ../../lib/kokkos/core/src/Cuda/Kokkos_Cuda_Instance.cpp:224
Traceback functionality not available

[r231n01:55289] *** Process received signal ***
[r231n01:55289] Signal: Aborted (6)
[r231n01:55289] Signal code:  (-6)
[r231n01:55289] [ 0] linux-vdso64.so.1(__kernel_sigtramp_rt64+0x0)[0x2000000504d8]
[r231n01:55289] [ 1] /lib64/power9/libc.so.6(gsignal+0xd8)[0x20000bb63798]
[r231n01:55289] [ 2] /lib64/power9/libc.so.6(abort+0x164)[0x20000bb43bac]
[r231n01:55289] [ 3] /lib64/power9/libc.so.6(abort+0x164)[0x20000bb43bac]
[r231n01:55320] [ 3] /cineca/prod/opt/compilers/gnu/8.4.0/none/lib64/libstdc++.so.6(_ZN9__gnu_cxx27__verbose_terminate_handlerEv+0x158)[0x20000b32bd38]
[r231n01:55320] [ 4] /cineca/prod/opt/compilers/gnu/8.4.0/none/lib64/libstdc++.so.6(+0xb6c44)[0x20000b326c44]
[r231n01:55320] [ 5] /cineca/prod/opt/compilers/gnu/8.4.0/none/lib64/libstdc++.so.6(_ZSt9terminatev+0x20)[0x20000b326d00]
[r231n01:55320] [ 6] terminate called after throwing an instance of 'std::runtime_error'
  what():  cudaGetDeviceCount(&m_cudaDevCount) error( cudaErrorNoDevice): no CUDA-capable device is detected ../../lib/kokkos/core/src/Cuda/Kokkos_Cuda_Instance.cpp:224
Traceback functionality not available

[r231n01:55291] *** Process received signal ***
[r231n01:55291] Signal: Aborted (6)
[r231n01:55291] Signal code:  (-6)
[r231n01:55291] [ 0] linux-vdso64.so.1(__kernel_sigtramp_rt64+0x0)[0x2000000504d8]
[r231n01:55291] [ 1] /lib64/power9/libc.so.6(gsignal+0xd8)[0x20000bb63798]
[r231n01:55291] [ 2] /lib64/power9/libc.so.6(abort+0x164)[0x20000bb43bac]
[r231n01:55291] [ 3] /cineca/prod/opt/compilers/gnu/8.4.0/none/lib64/libstdc++.so.6(_ZN9__gnu_cxx27__verbose_terminate_handlerEv+0x158)[0x20000b32bd38]
[r231n01:55291] [ 4] terminate called after throwing an instance of 'std::runtime_error'
  what():  cudaGetDeviceCount(&m_cudaDevCount) error( cudaErrorNoDevice): no CUDA-capable device is detected ../../lib/kokkos/core/src/Cuda/Kokkos_Cuda_Instance.cpp:224
Traceback functionality not available

[r231n01:55292] *** Process received signal ***
[r231n01:55292] Signal: Aborted (6)
[r231n01:55292] Signal code:  (-6)
[r231n01:55292] [ 0] linux-vdso64.so.1(__kernel_sigtramp_rt64+0x0)[0x2000000504d8]
[r231n01:55292] [ 1] /lib64/power9/libc.so.6(gsignal+0xd8)[0x20000bb63798]
[r231n01:55292] [ 2] /lib64/power9/libc.so.6(abort+0x164)[0x20000bb43bac]
[r231n01:55292] [ 3] /cineca/prod/opt/compilers/gnu/8.4.0/none/lib64/libstdc++.so.6(_ZN9__gnu_cxx27__verbose_terminate_handlerEv+0x158)[0x20000b32bd38]
[r231n01:55292] [ 4]   what():  cudaGetDeviceCount(&m_cudaDevCount) error( cudaErrorNoDevice): no CUDA-capable device is detected ../../lib/kokkos/core/src/Cuda/Kokkos_Cuda_Instance.cpp:224
Traceback functionality not available

[r231n01:55290] *** Process received signal ***
[r231n01:55290] Signal: Aborted (6)
[r231n01:55290] Signal code:  (-6)
[r231n01:55290] [ 0] linux-vdso64.so.1(__kernel_sigtramp_rt64+0x0)[0x2000000504d8]
[r231n01:55290] [ 1] /lib64/power9/libc.so.6(gsignal+0xd8)[0x20000bb63798]
[r231n01:55290] [ 2] /lib64/power9/libc.so.6(abort+0x164)[0x20000bb43bac]
[r231n01:55290] [ 3] /cineca/prod/opt/compilers/gnu/8.4.0/none/lib64/libstdc++.so.6(_ZN9__gnu_cxx27__verbose_terminate_handlerEv+0x158)[0x20000b32bd38]
[r231n01:55290] [ 4] terminate called after throwing an instance of 'std::runtime_error'
/cineca/prod/opt/compilers/gnu/8.4.0/none/lib64/libstdc++.so.6(__cxa_throw+0x7c)[0x20000b3271dc]
[r231n01:55309] [ 7] /cineca/prod/opt/compilers/gnu/8.4.0/none/lib64/libstdc++.so.6(_ZSt9terminatev+0x20)[0x20000b326d00]
[r231n01:55313] [ 6] /cineca/prod/opt/compilers/gnu/8.4.0/none/lib64/libstdc++.so.6(__cxa_throw+0x7c)[0x20000b3271dc]
[r231n01:55313] [ 7] /cineca/prod/opt/compilers/gnu/8.4.0/none/lib64/libstdc++.so.6(_ZN9__gnu_cxx27__verbose_terminate_handlerEv+0x158)[0x20000b32bd38]
[r231n01:55317] [ 4] /cineca/prod/opt/compilers/gnu/8.4.0/none/lib64/libstdc++.so.6(+0xb6c44)[0x20000b326c44]
[r231n01:55318] [ 5] /cineca/prod/opt/compilers/gnu/8.4.0/none/lib64/libstdc++.so.6(_ZSt9terminatev+0x20)[0x20000b326d00]
[r231n01:55318] [ 6] /cineca/prod/opt/compilers/gnu/8.4.0/none/lib64/libstdc++.so.6(+0xb6c44)[0x20000b326c44]
[r231n01:55290] [ 5] /cineca/prod/opt/compilers/gnu/8.4.0/none/lib64/libstdc++.so.6(+0xb6c44)[0x20000b326c44]
[r231n01:55316] [ 5] /cineca/prod/opt/compilers/gnu/8.4.0/none/lib64/libstdc++.so.6(_ZSt9terminatev+0x20)[0x20000b326d00]
[r231n01:55316] [ 6] /cineca/prod/opt/compilers/gnu/8.4.0/none/lib64/libstdc++.so.6(__cxa_throw+0x7c)[0x20000b3271dc]
[r231n01:55316] /cineca/prod/opt/compilers/gnu/8.4.0/none/lib64/libstdc++.so.6(_ZN9__gnu_cxx27__verbose_terminate_handlerEv+0x158)[0x20000b32bd38]
[r231n01:55289] [ 4] /cineca/prod/opt/compilers/gnu/8.4.0/none/lib64/libstdc++.so.6(+0xb6c44)[0x20000b326c44]
[r231n01:55289] /cineca/prod/opt/compilers/gnu/8.4.0/none/lib64/libstdc++.so.6(__cxa_throw+0x7c)[0x20000b3271dc]
[r231n01:55320] [ 7] /cineca/prod/opt/compilers/gnu/8.4.0/none/lib64/libstdc++.so.6(+0xb6c44)[0x20000b326c44]
[r231n01:55291] [ 5] /cineca/prod/opt/compilers/gnu/8.4.0/none/lib64/libstdc++.so.6(_ZSt9terminatev+0x20)[0x20000b326d00]
[r231n01:55291] [ 6] /cineca/prod/opt/compilers/gnu/8.4.0/none/lib64/libstdc++.so.6(+0xb6c44)[0x20000b326c44]
[r231n01:55292] [ 5] /cineca/prod/opt/compilers/gnu/8.4.0/none/lib64/libstdc++.so.6(_ZSt9terminatev+0x20)[0x20000b326d00]
[r231n01:55292] [ 6] /cineca/prod/opt/compilers/gnu/8.4.0/none/lib64/libstdc++.so.6(_ZN9__gnu_cxx27__verbose_terminate_handlerEv+0x158)[0x20000b32bd38]
[r231n01:55319] [ 4] /cineca/prod/opt/compilers/gnu/8.4.0/none/lib64/libstdc++.so.6(+0xb6c44)[0x20000b326c44]
[r231n01:55319] [ 5] /cineca/prod/opt/compilers/gnu/8.4.0/none/lib64/libstdc++.so.6(_ZSt9terminatev+0x20)[0x20000b326d00]
[r231n01:55319] [ 6] /lib64/power9/libc.so.6(abort+0x164)[0x20000bb43bac]
[r231n01:55294] [ 3] /cineca/prod/opt/compilers/gnu/8.4.0/none/lib64/libstdc++.so.6(_ZN9__gnu_cxx27__verbose_terminate_handlerEv+0x158)[0x20000b32bd38]
[r231n01:55294] [ 4] /cineca/prod/opt/compilers/gnu/8.4.0/none/lib64/libstdc++.so.6(+0xb6c44)[0x20000b326c44]
[r231n01:55294] [ 5] /cineca/prod/opt/compilers/gnu/8.4.0/none/lib64/libstdc++.so.6(_ZSt9terminatev+0x20)[0x20000b326d00]
[r231n01:55294] [ 6] /cineca/prod/opt/compilers/gnu/8.4.0/none/lib64/libstdc++.so.6(+0xb6c44)[0x20000b326c44]
[r231n01:55295] [ 5] /cineca/prod/opt/compilers/gnu/8.4.0/none/lib64/libstdc++.so.6(_ZSt9terminatev+0x20)[0x20000b326d00]
[r231n01:55295] [ 6] /cineca/prod/opt/compilers/gnu/8.4.0/none/lib64/libstdc++.so.6(__cxa_throw+0x7c)[0x20000b3271dc]
[r231n01:55295] [ 7] /cineca/prod/opt/compilers/gnu/8.4.0/none/lib64/libstdc++.so.6(__cxa_throw+0x7c)[0x20000b3271dc]
[r231n01:55315] [ 7] /cineca/prod/opt/compilers/gnu/8.4.0/none/lib64/libstdc++.so.6(_ZSt9terminatev+0x20)[0x20000b326d00]
[r231n01:55300] [ 6] /cineca/prod/opt/compilers/gnu/8.4.0/none/lib64/libstdc++.so.6(__cxa_throw+0x7c)[0x20000b3271dc]
[r231n01:55300] [ 7] /cineca/prod/opt/compilers/gnu/8.4.0/none/lib64/libstdc++.so.6(_ZSt9terminatev+0x20)[0x20000b326d00]
[r231n01:55293] [ 6] /cineca/prod/opt/compilers/gnu/8.4.0/none/lib64/libstdc++.so.6(__cxa_throw+0x7c)[0x20000b3271dc]
[r231n01:55293] [ 7] /cineca/prod/opt/compilers/gnu/8.4.0/none/lib64/libstdc++.so.6(+0xb6c44)[0x20000b326c44]
[r231n01:55297] [ 5] /cineca/prod/opt/compilers/gnu/8.4.0/none/lib64/libstdc++.so.6(_ZSt9terminatev+0x20)[0x20000b326d00]
[r231n01:55297] [ 6] /cineca/prod/opt/compilers/gnu/8.4.0/none/lib64/libstdc++.so.6(__cxa_throw+0x7c)[0x20000b3271dc]
[r231n01:55297] [ 7] /cineca/prod/opt/compilers/gnu/8.4.0/none/lib64/libstdc++.so.6(_ZSt9terminatev+0x20)[0x20000b326d00]
[r231n01:55301] [ 6] /cineca/prod/opt/compilers/gnu/8.4.0/none/lib64/libstdc++.so.6(__cxa_throw+0x7c)[0x20000b3271dc]
[r231n01:55301] [ 7] /cineca/prod/opt/compilers/gnu/8.4.0/none/lib64/libstdc++.so.6(_ZN9__gnu_cxx27__verbose_terminate_handlerEv+0x158)[0x20000b32bd38]
[r231n01:55303] [ 4] /cineca/prod/opt/compilers/gnu/8.4.0/none/lib64/libstdc++.so.6(+0xb6c44)[0x20000b326c44]
[r231n01:55303] [ 5] /cineca/prod/opt/compilers/gnu/8.4.0/none/lib64/libstdc++.so.6(_ZSt9terminatev+0x20)[0x20000b326d00]
[r231n01:55303] [ 6] /cineca/prod/opt/compilers/gnu/8.4.0/none/lib64/libstdc++.so.6(_ZSt9terminatev+0x20)[0x20000b326d00]
[r231n01:55298] [ 6] /cineca/prod/opt/compilers/gnu/8.4.0/none/lib64/libstdc++.so.6(__cxa_throw+0x7c)[0x20000b3271dc]
[r231n01:55298] [ 7] /cineca/prod/opt/compilers/gnu/8.4.0/none/lib64/libstdc++.so.6(_ZSt9terminatev+0x20)[0x20000b326d00]
[r231n01:55305] [ 6] /cineca/prod/opt/compilers/gnu/8.4.0/none/lib64/libstdc++.so.6(__cxa_throw+0x7c)[0x20000b3271dc]
[r231n01:55305] [ 7] /cineca/prod/opt/compilers/gnu/8.4.0/none/lib64/libstdc++.so.6(+0xb6c44)[0x20000b326c44]
[r231n01:55306] [ 5] /cineca/prod/opt/compilers/gnu/8.4.0/none/lib64/libstdc++.so.6(_ZSt9terminatev+0x20)[0x20000b326d00]
[r231n01:55306] [ 6] /cineca/prod/opt/compilers/gnu/8.4.0/none/lib64/libstdc++.so.6(__cxa_throw+0x7c)[0x20000b3271dc]
[r231n01:55306] [ 7] /cineca/prod/opt/compilers/gnu/8.4.0/none/lib64/libstdc++.so.6(__cxa_throw+0x7c)[0x20000b3271dc]
[r231n01:55304] [ 7] /cineca/prod/opt/compilers/gnu/8.4.0/none/lib64/libstdc++.so.6(_ZN9__gnu_cxx27__verbose_terminate_handlerEv+0x158)[0x20000b32bd38]
[r231n01:55311] [ 4] /cineca/prod/opt/compilers/gnu/8.4.0/none/lib64/libstdc++.so.6(+0xb6c44)[0x20000b326c44]
[r231n01:55311] [ 5] /cineca/prod/opt/compilers/gnu/8.4.0/none/lib64/libstdc++.so.6(_ZSt9terminatev+0x20)[0x20000b326d00]
[r231n01:55311] [ 6] terminate called after throwing an instance of 'std::runtime_error'
terminate called after throwing an instance of 'std::runtime_error'
/cineca/prod/opt/compilers/gnu/8.4.0/none/lib64/libstdc++.so.6(__cxa_throw+0x7c)[0x20000b3271dc]
[r231n01:55311] [ 7] lmp_kokkos_cuda_mpi(_ZN6Kokkos4Impl23throw_runtime_exceptionERKNSt7__cxx1112basic_stringIcSt11char_traitsIcESaIcEEE+0xac)[0x12bd189c]
[r231n01:55311] [ 8] /cineca/prod/opt/compilers/gnu/8.4.0/none/lib64/libstdc++.so.6(_ZSt9terminatev+0x20)[0x20000b326d00]
[r231n01:55290] [ 6] /cineca/prod/opt/compilers/gnu/8.4.0/none/lib64/libstdc++.so.6(__cxa_throw+0x7c)[0x20000b3271dc]
[r231n01:55290] [ 7] lmp_kokkos_cuda_mpi(_ZN6Kokkos4Impl23throw_runtime_exceptionERKNSt7__cxx1112basic_stringIcSt11char_traitsIcESaIcEEE+0xac)[0x12bd189c]
[r231n01:55290] [ 8] /cineca/prod/opt/compilers/gnu/8.4.0/none/lib64/libstdc++.so.6(__cxa_throw+0x7c)[0x20000b3271dc]
[r231n01:55307] [ 7] lmp_kokkos_cuda_mpi(_ZN6Kokkos4Impl23throw_runtime_exceptionERKNSt7__cxx1112basic_stringIcSt11char_traitsIcESaIcEEE+0xac)[0x12bd189c]
[r231n01:55307] [ 8] [ 7] lmp_kokkos_cuda_mpi(_ZN6Kokkos4Impl23throw_runtime_exceptionERKNSt7__cxx1112basic_stringIcSt11char_traitsIcESaIcEEE+0xac)[0x12bd189c]
[r231n01:55316] [ 8] [ 5] /cineca/prod/opt/compilers/gnu/8.4.0/none/lib64/libstdc++.so.6(_ZSt9terminatev+0x20)[0x20000b326d00]
[r231n01:55289] [ 6] /cineca/prod/opt/compilers/gnu/8.4.0/none/lib64/libstdc++.so.6(__cxa_throw+0x7c)[0x20000b3271dc]
[r231n01:55289] [ 7] lmp_kokkos_cuda_mpi(_ZN6Kokkos4Impl23throw_runtime_exceptionERKNSt7__cxx1112basic_stringIcSt11char_traitsIcESaIcEEE+0xac)[0x12bd189c]
[r231n01:55289] [ 8] lmp_kokkos_cuda_mpi(_ZN6Kokkos4Impl23throw_runtime_exceptionERKNSt7__cxx1112basic_stringIcSt11char_traitsIcESaIcEEE+0xac)[0x12bd189c]
[r231n01:55320] [ 8] /cineca/prod/opt/compilers/gnu/8.4.0/none/lib64/libstdc++.so.6(__cxa_throw+0x7c)[0x20000b3271dc]
[r231n01:55291] [ 7] lmp_kokkos_cuda_mpi(_ZN6Kokkos4Impl23throw_runtime_exceptionERKNSt7__cxx1112basic_stringIcSt11char_traitsIcESaIcEEE+0xac)[0x12bd189c]
[r231n01:55291] [ 8] /cineca/prod/opt/compilers/gnu/8.4.0/none/lib64/libstdc++.so.6(__cxa_throw+0x7c)[0x20000b3271dc]
[r231n01:55292] [ 7] lmp_kokkos_cuda_mpi(_ZN6Kokkos4Impl23throw_runtime_exceptionERKNSt7__cxx1112basic_stringIcSt11char_traitsIcESaIcEEE+0xac)[0x12bd189c]
[r231n01:55292] [ 8] terminate called after throwing an instance of 'std::runtime_error'
  what():  cudaGetDeviceCount(&m_cudaDevCount) error( cudaErrorNoDevice): no CUDA-capable device is detected ../../lib/kokkos/core/src/Cuda/Kokkos_Cuda_Instance.cpp:224
Traceback functionality not available

[r231n01:55296] *** Process received signal ***
[r231n01:55296] Signal: Aborted (6)
[r231n01:55296] Signal code:  (-6)
[r231n01:55296] [ 0] linux-vdso64.so.1(__kernel_sigtramp_rt64+0x0)[0x2000000504d8]
[r231n01:55296] [ 1] /lib64/power9/libc.so.6(gsignal+0xd8)[0x20000bb63798]
[r231n01:55296] [ 2] /lib64/power9/libc.so.6(abort+0x164)[0x20000bb43bac]
[r231n01:55296] [ 3] /cineca/prod/opt/compilers/gnu/8.4.0/none/lib64/libstdc++.so.6(_ZN9__gnu_cxx27__verbose_terminate_handlerEv+0x158)[0x20000b32bd38]
[r231n01:55296] [ 4] /cineca/prod/opt/compilers/gnu/8.4.0/none/lib64/libstdc++.so.6(+0xb6c44)[0x20000b326c44]
[r231n01:55296] [ 5] /cineca/prod/opt/compilers/gnu/8.4.0/none/lib64/libstdc++.so.6(_ZSt9terminatev+0x20)[0x20000b326d00]
[r231n01:55296] [ 6] /cineca/prod/opt/compilers/gnu/8.4.0/none/lib64/libstdc++.so.6(__cxa_throw+0x7c)[0x20000b3271dc]
[r231n01:55296] [ 7] lmp_kokkos_cuda_mpi(_ZN6Kokkos4Impl23throw_runtime_exceptionERKNSt7__cxx1112basic_stringIcSt11char_traitsIcESaIcEEE+0xac)[0x12bd189c]
[r231n01:55296] [ 8] /cineca/prod/opt/compilers/gnu/8.4.0/none/lib64/libstdc++.so.6(__cxa_throw+0x7c)[0x20000b3271dc]
[r231n01:55319] [ 7] lmp_kokkos_cuda_mpi(_ZN6Kokkos4Impl23throw_runtime_exceptionERKNSt7__cxx1112basic_stringIcSt11char_traitsIcESaIcEEE+0xac)[0x12bd189c]
[r231n01:55319] [ 8] /cineca/prod/opt/compilers/gnu/8.4.0/none/lib64/libstdc++.so.6(__cxa_throw+0x7c)[0x20000b3271dc]
[r231n01:55294] [ 7] lmp_kokkos_cuda_mpi(_ZN6Kokkos4Impl23throw_runtime_exceptionERKNSt7__cxx1112basic_stringIcSt11char_traitsIcESaIcEEE+0xac)[0x12bd189c]
[r231n01:55294] [ 8] terminate called after throwing an instance of 'std::runtime_error'
  what():  cudaGetDeviceCount(&m_cudaDevCount) error( cudaErrorNoDevice): no CUDA-capable device is detected ../../lib/kokkos/core/src/Cuda/Kokkos_Cuda_Instance.cpp:224
Traceback functionality not available

[r231n01:55299] *** Process received signal ***
[r231n01:55299] Signal: Aborted (6)
[r231n01:55299] Signal code:  (-6)
[r231n01:55299] [ 0] linux-vdso64.so.1(__kernel_sigtramp_rt64+0x0)[0x2000000504d8]
[r231n01:55299] [ 1] /lib64/power9/libc.so.6(gsignal+0xd8)[0x20000bb63798]
[r231n01:55299] [ 2] /lib64/power9/libc.so.6(abort+0x164)[0x20000bb43bac]
[r231n01:55299] [ 3] /cineca/prod/opt/compilers/gnu/8.4.0/none/lib64/libstdc++.so.6(_ZN9__gnu_cxx27__verbose_terminate_handlerEv+0x158)[0x20000b32bd38]
[r231n01:55299] [ 4] /cineca/prod/opt/compilers/gnu/8.4.0/none/lib64/libstdc++.so.6(+0xb6c44)[0x20000b326c44]
[r231n01:55299] [ 5] /cineca/prod/opt/compilers/gnu/8.4.0/none/lib64/libstdc++.so.6(_ZSt9terminatev+0x20)[0x20000b326d00]
[r231n01:55299] [ 6] /cineca/prod/opt/compilers/gnu/8.4.0/none/lib64/libstdc++.so.6(__cxa_throw+0x7c)[0x20000b3271dc]
[r231n01:55299] [ 7] lmp_kokkos_cuda_mpi(_ZN6Kokkos4Impl23throw_runtime_exceptionERKNSt7__cxx1112basic_stringIcSt11char_traitsIcESaIcEEE+0xac)[0x12bd189c]
[r231n01:55299] [ 8] lmp_kokkos_cuda_mpi(_ZN6Kokkos4Impl23throw_runtime_exceptionERKNSt7__cxx1112basic_stringIcSt11char_traitsIcESaIcEEE+0xac)[0x12bd189c]
[r231n01:55295] [ 8] lmp_kokkos_cuda_mpi(_ZN6Kokkos4Impl23throw_runtime_exceptionERKNSt7__cxx1112basic_stringIcSt11char_traitsIcESaIcEEE+0xac)[0x12bd189c]
[r231n01:55315] [ 8] terminate called after throwing an instance of 'std::runtime_error'
  what():  cudaGetDeviceCount(&m_cudaDevCount) error( cudaErrorNoDevice): no CUDA-capable device is detected ../../lib/kokkos/core/src/Cuda/Kokkos_Cuda_Instance.cpp:224
Traceback functionality not available

[r231n01:55302] *** Process received signal ***
[r231n01:55302] Signal: Aborted (6)
[r231n01:55302] Signal code:  (-6)
[r231n01:55302] [ 0] linux-vdso64.so.1(__kernel_sigtramp_rt64+0x0)[0x2000000504d8]
[r231n01:55302] [ 1] /lib64/power9/libc.so.6(gsignal+0xd8)[0x20000bb63798]
[r231n01:55302] [ 2] /lib64/power9/libc.so.6(abort+0x164)[0x20000bb43bac]
[r231n01:55302] [ 3] /cineca/prod/opt/compilers/gnu/8.4.0/none/lib64/libstdc++.so.6(_ZN9__gnu_cxx27__verbose_terminate_handlerEv+0x158)[0x20000b32bd38]
[r231n01:55302] [ 4] /cineca/prod/opt/compilers/gnu/8.4.0/none/lib64/libstdc++.so.6(+0xb6c44)[0x20000b326c44]
[r231n01:55302] [ 5] /cineca/prod/opt/compilers/gnu/8.4.0/none/lib64/libstdc++.so.6(_ZSt9terminatev+0x20)[0x20000b326d00]
[r231n01:55302] [ 6] /cineca/prod/opt/compilers/gnu/8.4.0/none/lib64/libstdc++.so.6(__cxa_throw+0x7c)[0x20000b3271dc]
[r231n01:55302] [ 7] lmp_kokkos_cuda_mpi(_ZN6Kokkos4Impl23throw_runtime_exceptionERKNSt7__cxx1112basic_stringIcSt11char_traitsIcESaIcEEE+0xac)[0x12bd189c]
[r231n01:55302] [ 8] lmp_kokkos_cuda_mpi(_ZN6Kokkos4Impl23throw_runtime_exceptionERKNSt7__cxx1112basic_stringIcSt11char_traitsIcESaIcEEE+0xac)[0x12bd189c]
[r231n01:55300] [ 8] lmp_kokkos_cuda_mpi(_ZN6Kokkos4Impl23throw_runtime_exceptionERKNSt7__cxx1112basic_stringIcSt11char_traitsIcESaIcEEE+0xac)[0x12bd189c]
[r231n01:55293] [ 8] lmp_kokkos_cuda_mpi(_ZN6Kokkos4Impl23throw_runtime_exceptionERKNSt7__cxx1112basic_stringIcSt11char_traitsIcESaIcEEE+0xac)[0x12bd189c]
[r231n01:55297] [ 8] lmp_kokkos_cuda_mpi(_ZN6Kokkos4Impl23throw_runtime_exceptionERKNSt7__cxx1112basic_stringIcSt11char_traitsIcESaIcEEE+0xac)[0x12bd189c]
[r231n01:55301] [ 8] /cineca/prod/opt/compilers/gnu/8.4.0/none/lib64/libstdc++.so.6(__cxa_throw+0x7c)[0x20000b3271dc]
[r231n01:55303] [ 7] lmp_kokkos_cuda_mpi(_ZN6Kokkos4Impl23throw_runtime_exceptionERKNSt7__cxx1112basic_stringIcSt11char_traitsIcESaIcEEE+0xac)[0x12bd189c]
[r231n01:55303] [ 8] lmp_kokkos_cuda_mpi(_ZN6Kokkos4Impl23throw_runtime_exceptionERKNSt7__cxx1112basic_stringIcSt11char_traitsIcESaIcEEE+0xac)[0x12bd189c]
[r231n01:55298] [ 8] terminate called after throwing an instance of 'std::runtime_error'
  what():  cudaGetDeviceCount(&m_cudaDevCount) error( cudaErrorNoDevice): no CUDA-capable device is detected ../../lib/kokkos/core/src/Cuda/Kokkos_Cuda_Instance.cpp:224
Traceback functionality not available

[r231n01:55308] *** Process received signal ***
[r231n01:55308] Signal: Aborted (6)
[r231n01:55308] Signal code:  (-6)
[r231n01:55308] [ 0] linux-vdso64.so.1(__kernel_sigtramp_rt64+0x0)[0x2000000504d8]
[r231n01:55308] [ 1] /lib64/power9/libc.so.6(gsignal+0xd8)[0x20000bb63798]
[r231n01:55308] [ 2] /lib64/power9/libc.so.6(abort+0x164)[0x20000bb43bac]
[r231n01:55308] [ 3] /cineca/prod/opt/compilers/gnu/8.4.0/none/lib64/libstdc++.so.6(_ZN9__gnu_cxx27__verbose_terminate_handlerEv+0x158)[0x20000b32bd38]
[r231n01:55308] [ 4] /cineca/prod/opt/compilers/gnu/8.4.0/none/lib64/libstdc++.so.6(+0xb6c44)[0x20000b326c44]
[r231n01:55308] [ 5] /cineca/prod/opt/compilers/gnu/8.4.0/none/lib64/libstdc++.so.6(_ZSt9terminatev+0x20)[0x20000b326d00]
[r231n01:55308] [ 6] /cineca/prod/opt/compilers/gnu/8.4.0/none/lib64/libstdc++.so.6(__cxa_throw+0x7c)[0x20000b3271dc]
[r231n01:55308] [ 7] lmp_kokkos_cuda_mpi(_ZN6Kokkos4Impl23throw_runtime_exceptionERKNSt7__cxx1112basic_stringIcSt11char_traitsIcESaIcEEE+0xac)[0x12bd189c]
[r231n01:55308] [ 8] lmp_kokkos_cuda_mpi(_ZN6Kokkos4Impl23throw_runtime_exceptionERKNSt7__cxx1112basic_stringIcSt11char_traitsIcESaIcEEE+0xac)[0x12bd189c]
[r231n01:55305] [ 8] terminate called after throwing an instance of 'std::runtime_error'
  what():  cudaGetDeviceCount(&m_cudaDevCount) error( cudaErrorNoDevice): no CUDA-capable device is detected ../../lib/kokkos/core/src/Cuda/Kokkos_Cuda_Instance.cpp:224
Traceback functionality not available

[r231n01:55310] *** Process received signal ***
[r231n01:55310] Signal: Aborted (6)
[r231n01:55310] Signal code:  (-6)
[r231n01:55310] [ 0] linux-vdso64.so.1(__kernel_sigtramp_rt64+0x0)[0x2000000504d8]
[r231n01:55310] [ 1] /lib64/power9/libc.so.6(gsignal+0xd8)[0x20000bb63798]
[r231n01:55310] [ 2] /lib64/power9/libc.so.6(abort+0x164)[0x20000bb43bac]
[r231n01:55310] [ 3] /cineca/prod/opt/compilers/gnu/8.4.0/none/lib64/libstdc++.so.6(_ZN9__gnu_cxx27__verbose_terminate_handlerEv+0x158)[0x20000b32bd38]
[r231n01:55310] [ 4] /cineca/prod/opt/compilers/gnu/8.4.0/none/lib64/libstdc++.so.6(+0xb6c44)[0x20000b326c44]
[r231n01:55310] [ 5] /cineca/prod/opt/compilers/gnu/8.4.0/none/lib64/libstdc++.so.6(_ZSt9terminatev+0x20)[0x20000b326d00]
[r231n01:55310] [ 6] /cineca/prod/opt/compilers/gnu/8.4.0/none/lib64/libstdc++.so.6(__cxa_throw+0x7c)[0x20000b3271dc]
[r231n01:55310] [ 7] lmp_kokkos_cuda_mpi(_ZN6Kokkos4Impl23throw_runtime_exceptionERKNSt7__cxx1112basic_stringIcSt11char_traitsIcESaIcEEE+0xac)[0x12bd189c]
[r231n01:55310] [ 8] lmp_kokkos_cuda_mpi(_ZN6Kokkos4Impl23throw_runtime_exceptionERKNSt7__cxx1112basic_stringIcSt11char_traitsIcESaIcEEE+0xac)[0x12bd189c]
[r231n01:55306] [ 8] lmp_kokkos_cuda_mpi(_ZN6Kokkos4Impl23throw_runtime_exceptionERKNSt7__cxx1112basic_stringIcSt11char_traitsIcESaIcEEE+0xac)[0x12bd189c]
[r231n01:55304] [ 8] terminate called after throwing an instance of 'std::runtime_error'
  what():  cudaGetDeviceCount(&m_cudaDevCount) error( cudaErrorNoDevice): no CUDA-capable device is detected ../../lib/kokkos/core/src/Cuda/Kokkos_Cuda_Instance.cpp:224
Traceback functionality not available

[r231n01:55314] *** Process received signal ***
[r231n01:55314] Signal: Aborted (6)
[r231n01:55314] Signal code:  (-6)
[r231n01:55314] [ 0] linux-vdso64.so.1(__kernel_sigtramp_rt64+0x0)[0x2000000504d8]
[r231n01:55314] [ 1] /lib64/power9/libc.so.6(gsignal+0xd8)[0x20000bb63798]
[r231n01:55314] [ 2] /lib64/power9/libc.so.6(abort+0x164)[0x20000bb43bac]
[r231n01:55314] [ 3] /cineca/prod/opt/compilers/gnu/8.4.0/none/lib64/libstdc++.so.6(_ZN9__gnu_cxx27__verbose_terminate_handlerEv+0x158)[0x20000b32bd38]
[r231n01:55314] [ 4] /cineca/prod/opt/compilers/gnu/8.4.0/none/lib64/libstdc++.so.6(+0xb6c44)[0x20000b326c44]
[r231n01:55314] [ 5] /cineca/prod/opt/compilers/gnu/8.4.0/none/lib64/libstdc++.so.6(_ZSt9terminatev+0x20)[0x20000b326d00]
[r231n01:55314] [ 6] /cineca/prod/opt/compilers/gnu/8.4.0/none/lib64/libstdc++.so.6(__cxa_throw+0x7c)[0x20000b3271dc]
[r231n01:55314] [ 7] lmp_kokkos_cuda_mpi(_ZN6Kokkos4Impl23throw_runtime_exceptionERKNSt7__cxx1112basic_stringIcSt11char_traitsIcESaIcEEE+0xac)[0x12bd189c]
[r231n01:55314] [ 8] /cineca/prod/opt/compilers/gnu/8.4.0/none/lib64/libstdc++.so.6(__cxa_throw+0x7c)[0x20000b3271dc]
[r231n01:55318] [ 7] lmp_kokkos_cuda_mpi(_ZN6Kokkos4Impl23throw_runtime_exceptionERKNSt7__cxx1112basic_stringIcSt11char_traitsIcESaIcEEE+0xac)[0x12bd189c]
[r231n01:55318] [ 8] lmp_kokkos_cuda_mpi(_ZN6Kokkos4Impl23throw_runtime_exceptionERKNSt7__cxx1112basic_stringIcSt11char_traitsIcESaIcEEE+0xac)[0x12bd189c]
[r231n01:55312] [ 8] lmp_kokkos_cuda_mpi(_ZN6Kokkos4Impl23throw_runtime_exceptionERKNSt7__cxx1112basic_stringIcSt11char_traitsIcESaIcEEE+0xac)[0x12bd189c]
[r231n01:55309] [ 8] lmp_kokkos_cuda_mpi(_ZN6Kokkos4Impl23throw_runtime_exceptionERKNSt7__cxx1112basic_stringIcSt11char_traitsIcESaIcEEE+0xac)[0x12bd189c]
[r231n01:55313] [ 8] /cineca/prod/opt/compilers/gnu/8.4.0/none/lib64/libstdc++.so.6(+0xb6c44)[0x20000b326c44]
[r231n01:55317] [ 5] /cineca/prod/opt/compilers/gnu/8.4.0/none/lib64/libstdc++.so.6(_ZSt9terminatev+0x20)[0x20000b326d00]
[r231n01:55317] [ 6] /cineca/prod/opt/compilers/gnu/8.4.0/none/lib64/libstdc++.so.6(__cxa_throw+0x7c)[0x20000b3271dc]
[r231n01:55317] [ 7] lmp_kokkos_cuda_mpi(_ZN6Kokkos4Impl23throw_runtime_exceptionERKNSt7__cxx1112basic_stringIcSt11char_traitsIcESaIcEEE+0xac)[0x12bd189c]
[r231n01:55317] [ 8] terminate called after throwing an instance of 'std::runtime_error'
terminate called after throwing an instance of 'std::runtime_error'
terminate called after throwing an instance of 'std::runtime_error'
terminate called after throwing an instance of 'std::runtime_error'
terminate called after throwing an instance of 'std::runtime_error'
terminate called after throwing an instance of 'std::runtime_error'
  what():  cudaGetDeviceCount(&m_cudaDevCount) error( cudaErrorNoDevice): no CUDA-capable device is detected ../../lib/kokkos/core/src/Cuda/Kokkos_Cuda_Instance.cpp:224
Traceback functionality not available

[r231n04:38459] *** Process received signal ***
[r231n04:38459] Signal: Aborted (6)
[r231n04:38459] Signal code:  (-6)
[r231n04:38459] [ 0] linux-vdso64.so.1(__kernel_sigtramp_rt64+0x0)[0x2000000504d8]
[r231n04:38459] [ 1] terminate called after throwing an instance of 'std::runtime_error'
terminate called after throwing an instance of 'std::runtime_error'
terminate called after throwing an instance of 'std::runtime_error'
  what():  cudaGetDeviceCount(&m_cudaDevCount) error( cudaErrorNoDevice): no CUDA-capable device is detected ../../lib/kokkos/core/src/Cuda/Kokkos_Cuda_Instance.cpp:224
Traceback functionality not available

[r231n04:38460] *** Process received signal ***
[r231n04:38460] Signal: Aborted (6)
[r231n04:38460] Signal code:  (-6)
[r231n04:38460] [ 0] linux-vdso64.so.1(__kernel_sigtramp_rt64+0x0)[0x2000000504d8]
[r231n04:38460] [ 1] terminate called after throwing an instance of 'std::runtime_error'
terminate called after throwing an instance of 'std::runtime_error'
terminate called after throwing an instance of 'std::runtime_error'
  what():  cudaGetDeviceCount(&m_cudaDevCount) error( cudaErrorNoDevice): no CUDA-capable device is detected ../../lib/kokkos/core/src/Cuda/Kokkos_Cuda_Instance.cpp:224
Traceback functionality not available

[r231n04:38461] *** Process received signal ***
[r231n04:38461] Signal: Aborted (6)
[r231n04:38461] Signal code:  (-6)
[r231n04:38461] [ 0] linux-vdso64.so.1(__kernel_sigtramp_rt64+0x0)[0x2000000504d8]
[r231n04:38461] [ 1] terminate called after throwing an instance of 'std::runtime_error'
terminate called after throwing an instance of 'std::runtime_error'
terminate called after throwing an instance of 'std::runtime_error'
  what():  cudaGetDeviceCount(&m_cudaDevCount) error( cudaErrorNoDevice): no CUDA-capable device is detected ../../lib/kokkos/core/src/Cuda/Kokkos_Cuda_Instance.cpp:224
Traceback functionality not available

[r231n04:38463] *** Process received signal ***
[r231n04:38463] Signal: Aborted (6)
[r231n04:38463] Signal code:  (-6)
[r231n04:38463] [ 0] linux-vdso64.so.1(__kernel_sigtramp_rt64+0x0)[0x2000000504d8]
[r231n04:38463] [ 1] terminate called after throwing an instance of 'std::runtime_error'
terminate called after throwing an instance of 'std::runtime_error'
terminate called after throwing an instance of 'std::runtime_error'
  what():  cudaGetDeviceCount(&m_cudaDevCount) error( cudaErrorNoDevice): no CUDA-capable device is detected ../../lib/kokkos/core/src/Cuda/Kokkos_Cuda_Instance.cpp:224
Traceback functionality not available

[r231n04:38468] *** Process received signal ***
[r231n04:38468] Signal: Aborted (6)
[r231n04:38468] Signal code:  (-6)
[r231n04:38468] [ 0] linux-vdso64.so.1(__kernel_sigtramp_rt64+0x0)[0x2000000504d8]
[r231n04:38468] [ 1] terminate called after throwing an instance of 'std::runtime_error'
terminate called after throwing an instance of 'std::runtime_error'
  what():  cudaGetDeviceCount(&m_cudaDevCount) error( cudaErrorNoDevice): no CUDA-capable device is detected ../../lib/kokkos/core/src/Cuda/Kokkos_Cuda_Instance.cpp:224
Traceback functionality not available

[r231n04:38467] *** Process received signal ***
[r231n04:38467] Signal: Aborted (6)
[r231n04:38467] Signal code:  (-6)
[r231n04:38467] [ 0] linux-vdso64.so.1(__kernel_sigtramp_rt64+0x0)[0x2000000504d8]
[r231n04:38467] [ 1] /lib64/power9/libc.so.6(gsignal+0xd8)[0x20000bb63798]
[r231n04:38467] [ 2] /lib64/power9/libc.so.6(abort+0x164)[0x20000bb43bac]
[r231n04:38467] [ 3] terminate called after throwing an instance of 'std::runtime_error'
terminate called after throwing an instance of 'std::runtime_error'
terminate called after throwing an instance of 'std::runtime_error'
terminate called after throwing an instance of 'std::runtime_error'
  what():  cudaGetDeviceCount(&m_cudaDevCount) error( cudaErrorNoDevice): no CUDA-capable device is detected ../../lib/kokkos/core/src/Cuda/Kokkos_Cuda_Instance.cpp:224
Traceback functionality not available

[r231n04:38466] *** Process received signal ***
[r231n04:38466] Signal: Aborted (6)
[r231n04:38466] Signal code:  (-6)
[r231n04:38466] [ 0] linux-vdso64.so.1(__kernel_sigtramp_rt64+0x0)[0x2000000504d8]
[r231n04:38466] [ 1] terminate called after throwing an instance of 'std::runtime_error'
terminate called after throwing an instance of 'std::runtime_error'
terminate called after throwing an instance of 'std::runtime_error'
  what():  cudaGetDeviceCount(&m_cudaDevCount) error( cudaErrorNoDevice): no CUDA-capable device is detected ../../lib/kokkos/core/src/Cuda/Kokkos_Cuda_Instance.cpp:224
Traceback functionality not available

[r231n04:38465] *** Process received signal ***
[r231n04:38465] Signal: Aborted (6)
[r231n04:38465] Signal code:  (-6)
[r231n04:38465] [ 0] linux-vdso64.so.1(__kernel_sigtramp_rt64+0x0)[0x2000000504d8]
[r231n04:38465] [ 1] /lib64/power9/libc.so.6(gsignal+0xd8)[0x20000bb63798]
[r231n04:38465] [ 2] /lib64/power9/libc.so.6(abort+0x164)[0x20000bb43bac]
[r231n04:38465] [ 3] terminate called after throwing an instance of 'std::runtime_error'
terminate called after throwing an instance of 'std::runtime_error'
terminate called after throwing an instance of 'std::runtime_error'
  what():  cudaGetDeviceCount(&m_cudaDevCount) error( cudaErrorNoDevice): no CUDA-capable device is detected ../../lib/kokkos/core/src/Cuda/Kokkos_Cuda_Instance.cpp:224
Traceback functionality not available

[r231n04:38472] *** Process received signal ***
[r231n04:38472] Signal: Aborted (6)
[r231n04:38472] Signal code:  (-6)
[r231n04:38472] [ 0] linux-vdso64.so.1(__kernel_sigtramp_rt64+0x0)[0x2000000504d8]
[r231n04:38472] [ 1] /lib64/power9/libc.so.6(gsignal+0xd8)[0x20000bb63798]
[r231n04:38472] [ 2] terminate called after throwing an instance of 'std::runtime_error'
terminate called after throwing an instance of 'std::runtime_error'
terminate called after throwing an instance of 'std::runtime_error'
  what():  cudaGetDeviceCount(&m_cudaDevCount) error( cudaErrorNoDevice): no CUDA-capable device is detected ../../lib/kokkos/core/src/Cuda/Kokkos_Cuda_Instance.cpp:224
Traceback functionality not available

[r231n04:38470] *** Process received signal ***
[r231n04:38470] Signal: Aborted (6)
[r231n04:38470] Signal code:  (-6)
[r231n04:38470] [ 0] linux-vdso64.so.1(__kernel_sigtramp_rt64+0x0)[0x2000000504d8]
[r231n04:38470] [ 1] /lib64/power9/libc.so.6(gsignal+0xd8)[0x20000bb63798]
[r231n04:38470] [ 2] /lib64/power9/libc.so.6(abort+0x164)[0x20000bb43bac]
[r231n04:38470] [ 3] terminate called after throwing an instance of 'std::runtime_error'
terminate called after throwing an instance of 'std::runtime_error'
terminate called after throwing an instance of 'std::runtime_error'
  what():  cudaGetDeviceCount(&m_cudaDevCount) error( cudaErrorNoDevice): no CUDA-capable device is detected ../../lib/kokkos/core/src/Cuda/Kokkos_Cuda_Instance.cpp:224
Traceback functionality not available

[r231n04:38469] *** Process received signal ***
[r231n04:38469] Signal: Aborted (6)
[r231n04:38469] Signal code:  (-6)
[r231n04:38469] [ 0] linux-vdso64.so.1(__kernel_sigtramp_rt64+0x0)[0x2000000504d8]
[r231n04:38469] [ 1] /lib64/power9/libc.so.6(gsignal+0xd8)[0x20000bb63798]
[r231n04:38469] [ 2] /lib64/power9/libc.so.6(abort+0x164)[0x20000bb43bac]
[r231n04:38469] [ 3] terminate called after throwing an instance of 'std::runtime_error'
terminate called after throwing an instance of 'std::runtime_error'
terminate called after throwing an instance of 'std::runtime_error'
  what():  cudaGetDeviceCount(&m_cudaDevCount) error( cudaErrorNoDevice): no CUDA-capable device is detected ../../lib/kokkos/core/src/Cuda/Kokkos_Cuda_Instance.cpp:224
Traceback functionality not available

[r231n04:38475] *** Process received signal ***
[r231n04:38475] Signal: Aborted (6)
[r231n04:38475] Signal code:  (-6)
[r231n04:38475] [ 0] linux-vdso64.so.1(__kernel_sigtramp_rt64+0x0)[0x2000000504d8]
[r231n04:38475] [ 1] /lib64/power9/libc.so.6(gsignal+0xd8)[0x20000bb63798]
[r231n04:38475] [ 2] /lib64/power9/libc.so.6(abort+0x164)[0x20000bb43bac]
[r231n04:38475] [ 3] terminate called after throwing an instance of 'std::runtime_error'
terminate called after throwing an instance of 'std::runtime_error'
terminate called after throwing an instance of 'std::runtime_error'
  what():  cudaGetDeviceCount(&m_cudaDevCount) error( cudaErrorNoDevice): no CUDA-capable device is detected ../../lib/kokkos/core/src/Cuda/Kokkos_Cuda_Instance.cpp:224
Traceback functionality not available

[r231n04:38476] *** Process received signal ***
[r231n04:38476] Signal: Aborted (6)
[r231n04:38476] Signal code:  (-6)
[r231n04:38476] [ 0] linux-vdso64.so.1(__kernel_sigtramp_rt64+0x0)[0x2000000504d8]
[r231n04:38476] [ 1] /lib64/power9/libc.so.6(gsignal+0xd8)[0x20000bb63798]
[r231n04:38476] [ 2] /lib64/power9/libc.so.6(abort+0x164)[0x20000bb43bac]
[r231n04:38476] [ 3] terminate called after throwing an instance of 'std::runtime_error'
terminate called after throwing an instance of 'std::runtime_error'
terminate called after throwing an instance of 'std::runtime_error'
  what():  cudaGetDeviceCount(&m_cudaDevCount) error( cudaErrorNoDevice): no CUDA-capable device is detected ../../lib/kokkos/core/src/Cuda/Kokkos_Cuda_Instance.cpp:224
Traceback functionality not available

[r231n04:38474] *** Process received signal ***
[r231n04:38474] Signal: Aborted (6)
[r231n04:38474] Signal code:  (-6)
[r231n04:38474] [ 0] linux-vdso64.so.1(__kernel_sigtramp_rt64+0x0)[0x2000000504d8]
[r231n04:38474] [ 1] /lib64/power9/libc.so.6(gsignal+0xd8)[0x20000bb63798]
[r231n04:38474] [ 2] /lib64/power9/libc.so.6(abort+0x164)[0x20000bb43bac]
[r231n04:38474] [ 3] terminate called after throwing an instance of 'std::runtime_error'
terminate called after throwing an instance of 'std::runtime_error'
terminate called after throwing an instance of 'std::runtime_error'
  what():  cudaGetDeviceCount(&m_cudaDevCount) error( cudaErrorNoDevice): no CUDA-capable device is detected ../../lib/kokkos/core/src/Cuda/Kokkos_Cuda_Instance.cpp:224
Traceback functionality not available

[r231n04:38473] *** Process received signal ***
[r231n04:38473] Signal: Aborted (6)
[r231n04:38473] Signal code:  (-6)
[r231n04:38473] [ 0] linux-vdso64.so.1(__kernel_sigtramp_rt64+0x0)[0x2000000504d8]
[r231n04:38473] [ 1] terminate called after throwing an instance of 'std::runtime_error'
terminate called after throwing an instance of 'std::runtime_error'
terminate called after throwing an instance of 'std::runtime_error'
  what():  cudaGetDeviceCount(&m_cudaDevCount) error( cudaErrorNoDevice): no CUDA-capable device is detected ../../lib/kokkos/core/src/Cuda/Kokkos_Cuda_Instance.cpp:224
Traceback functionality not available

[r231n04:38479] *** Process received signal ***
[r231n04:38479] Signal: Aborted (6)
[r231n04:38479] Signal code:  (-6)
[r231n04:38479] [ 0] linux-vdso64.so.1(__kernel_sigtramp_rt64+0x0)[0x2000000504d8]
[r231n04:38479] [ 1] /lib64/power9/libc.so.6(gsignal+0xd8)[0x20000bb63798]
[r231n04:38479] [ 2] terminate called after throwing an instance of 'std::runtime_error'
terminate called after throwing an instance of 'std::runtime_error'
terminate called after throwing an instance of 'std::runtime_error'
  what():  cudaGetDeviceCount(&m_cudaDevCount) error( cudaErrorNoDevice): no CUDA-capable device is detected ../../lib/kokkos/core/src/Cuda/Kokkos_Cuda_Instance.cpp:224
Traceback functionality not available

[r231n04:38481] *** Process received signal ***
[r231n04:38481] Signal: Aborted (6)
[r231n04:38481] Signal code:  (-6)
[r231n04:38481] [ 0] linux-vdso64.so.1(__kernel_sigtramp_rt64+0x0)[0x2000000504d8]
[r231n04:38481] [ 1] /lib64/power9/libc.so.6(gsignal+0xd8)[0x20000bb63798]
[r231n04:38481] [ 2] /lib64/power9/libc.so.6(abort+0x164)[0x20000bb43bac]
[r231n04:38481] [ 3] terminate called after throwing an instance of 'std::runtime_error'
terminate called after throwing an instance of 'std::runtime_error'
terminate called after throwing an instance of 'std::runtime_error'
  what():  cudaGetDeviceCount(&m_cudaDevCount) error( cudaErrorNoDevice): no CUDA-capable device is detected ../../lib/kokkos/core/src/Cuda/Kokkos_Cuda_Instance.cpp:224
Traceback functionality not available

[r231n04:38484] *** Process received signal ***
[r231n04:38484] Signal: Aborted (6)
[r231n04:38484] Signal code:  (-6)
[r231n04:38484] [ 0] linux-vdso64.so.1(__kernel_sigtramp_rt64+0x0)[0x2000000504d8]
[r231n04:38484] [ 1] /lib64/power9/libc.so.6(gsignal+0xd8)[0x20000bb63798]
[r231n04:38484] [ 2] /lib64/power9/libc.so.6(abort+0x164)[0x20000bb43bac]
[r231n04:38484] [ 3]   what():  cudaGetDeviceCount(&m_cudaDevCount) error( cudaErrorNoDevice): no CUDA-capable device is detected ../../lib/kokkos/core/src/Cuda/Kokkos_Cuda_Instance.cpp:224
Traceback functionality not available

[r231n02:57300] *** Process received signal ***
[r231n02:57300] Signal: Aborted (6)
[r231n02:57300] Signal code:  (-6)
terminate called after throwing an instance of 'std::runtime_error'
terminate called after throwing an instance of 'std::runtime_error'
  what():  cudaGetDeviceCount(&m_cudaDevCount) error( cudaErrorNoDevice): no CUDA-capable device is detected ../../lib/kokkos/core/src/Cuda/Kokkos_Cuda_Instance.cpp:224
Traceback functionality not available

[r231n04:38482] *** Process received signal ***
[r231n04:38482] Signal: Aborted (6)
[r231n04:38482] Signal code:  (-6)
[r231n04:38482] [ 0] linux-vdso64.so.1(__kernel_sigtramp_rt64+0x0)[0x2000000504d8]
[r231n04:38482] [ 1] /lib64/power9/libc.so.6(gsignal+0xd8)[0x20000bb63798]
[r231n04:38482] [ 2] /lib64/power9/libc.so.6(abort+0x164)[0x20000bb43bac]
[r231n04:38482] [ 3] terminate called after throwing an instance of 'std::runtime_error'
  what():  cudaGetDeviceCount(&m_cudaDevCount) error( cudaErrorNoDevice): no CUDA-capable device is detected ../../lib/kokkos/core/src/Cuda/Kokkos_Cuda_Instance.cpp:224
Traceback functionality not available

[r231n02:57302] *** Process received signal ***
[r231n02:57302] Signal: Aborted (6)
[r231n02:57302] Signal code:  (-6)
[r231n02:57302] [ 0] terminate called after throwing an instance of 'std::runtime_error'
terminate called after throwing an instance of 'std::runtime_error'
  what():  cudaGetDeviceCount(&m_cudaDevCount) error( cudaErrorNoDevice): no CUDA-capable device is detected ../../lib/kokkos/core/src/Cuda/Kokkos_Cuda_Instance.cpp:224
Traceback functionality not available

[r231n04:38453] *** Process received signal ***
[r231n04:38453] Signal: Aborted (6)
[r231n04:38453] Signal code:  (-6)
[r231n04:38453] [ 0] linux-vdso64.so.1(__kernel_sigtramp_rt64+0x0)[0x2000000504d8]
[r231n04:38453] [ 1] /lib64/power9/libc.so.6(gsignal+0xd8)[0x20000bb63798]
[r231n04:38453] [ 2] /lib64/power9/libc.so.6(abort+0x164)[0x20000bb43bac]
[r231n04:38453] [ 3] /cineca/prod/opt/compilers/gnu/8.4.0/none/lib64/libstdc++.so.6(_ZN9__gnu_cxx27__verbose_terminate_handlerEv+0x158)[0x20000b32bd38]
[r231n04:38453] terminate called after throwing an instance of 'std::runtime_error'
  what():  cudaGetDeviceCount(&m_cudaDevCount) error( cudaErrorNoDevice): no CUDA-capable device is detected ../../lib/kokkos/core/src/Cuda/Kokkos_Cuda_Instance.cpp:224
Traceback functionality not available

[r231n02:57304] *** Process received signal ***
[r231n02:57304] Signal: Aborted (6)
[r231n02:57304] Signal code:  (-6)
[r231n02:57304] [ 0] linux-vdso64.so.1(__kernel_sigtramp_rt64+0x0)[0x2000000504d8]
[r231n02:57304] terminate called after throwing an instance of 'std::runtime_error'
/cineca/prod/opt/compilers/gnu/8.4.0/none/lib64/libstdc++.so.6(_ZN9__gnu_cxx27__verbose_terminate_handlerEv+0x158)[0x20000b32bd38]
[r231n04:38484] [ 4] /cineca/prod/opt/compilers/gnu/8.4.0/none/lib64/libstdc++.so.6(+0xb6c44)[0x20000b326c44]
[r231n04:38484] [ 5] /cineca/prod/opt/compilers/gnu/8.4.0/none/lib64/libstdc++.so.6(_ZSt9terminatev+0x20)[0x20000b326d00]
[r231n04:38484] [ 6] /cineca/prod/opt/compilers/gnu/8.4.0/none/lib64/libstdc++.so.6(__cxa_throw+0x7c)[0x20000b3271dc]
[r231n04:38484] [ 7] terminate called after throwing an instance of 'std::runtime_error'
  what():  cudaGetDeviceCount(&m_cudaDevCount) error( cudaErrorNoDevice): no CUDA-capable device is detected ../../lib/kokkos/core/src/Cuda/Kokkos_Cuda_Instance.cpp:224
Traceback functionality not available

[r231n02:57305] *** Process received signal ***
[r231n02:57305] Signal: Aborted (6)
[r231n02:57305] Signal code:  (-6)
[r231n02:57305] [ 0] linux-vdso64.so.1(__kernel_sigtramp_rt64+0x0)[0x2000000504d8]
[r231n02:57305] [ 1] terminate called after throwing an instance of 'std::runtime_error'
[ 4] /cineca/prod/opt/compilers/gnu/8.4.0/none/lib64/libstdc++.so.6(+0xb6c44)[0x20000b326c44]
[r231n04:38453] [ 5] /cineca/prod/opt/compilers/gnu/8.4.0/none/lib64/libstdc++.so.6(_ZSt9terminatev+0x20)[0x20000b326d00]
[r231n04:38453] [ 6] /cineca/prod/opt/compilers/gnu/8.4.0/none/lib64/libstdc++.so.6(__cxa_throw+0x7c)[0x20000b3271dc]
[r231n04:38453] [ 7] terminate called after throwing an instance of 'std::runtime_error'
  what():  cudaGetDeviceCount(&m_cudaDevCount) error( cudaErrorNoDevice): no CUDA-capable device is detected ../../lib/kokkos/core/src/Cuda/Kokkos_Cuda_Instance.cpp:224
Traceback functionality not available

[r231n02:57306] *** Process received signal ***
terminate called after throwing an instance of 'std::runtime_error'
/cineca/prod/opt/compilers/gnu/8.4.0/none/lib64/libstdc++.so.6(_ZN9__gnu_cxx27__verbose_terminate_handlerEv+0x158)[0x20000b32bd38]
[r231n04:38482] [ 4] /cineca/prod/opt/compilers/gnu/8.4.0/none/lib64/libstdc++.so.6(+0xb6c44)[0x20000b326c44]
[r231n04:38482] [ 5] /cineca/prod/opt/compilers/gnu/8.4.0/none/lib64/libstdc++.so.6(_ZSt9terminatev+0x20)[0x20000b326d00]
[r231n04:38482] [ 6] /cineca/prod/opt/compilers/gnu/8.4.0/none/lib64/libstdc++.so.6(__cxa_throw+0x7c)[0x20000b3271dc]
[r231n04:38482] [ 7] terminate called after throwing an instance of 'std::runtime_error'
  what():  cudaGetDeviceCount(&m_cudaDevCount) error( cudaErrorNoDevice): no CUDA-capable device is detected ../../lib/kokkos/core/src/Cuda/Kokkos_Cuda_Instance.cpp:224
Traceback functionality not available

[r231n02:57308] *** Process received signal ***
[r231n02:57308] Signal: Aborted (6)
[r231n02:57308] Signal code:  (-6)
terminate called after throwing an instance of 'std::runtime_error'
terminate called after throwing an instance of 'std::runtime_error'
  what():  cudaGetDeviceCount(&m_cudaDevCount) error( cudaErrorNoDevice): no CUDA-capable device is detected ../../lib/kokkos/core/src/Cuda/Kokkos_Cuda_Instance.cpp:224
Traceback functionality not available

[r231n04:38480] *** Process received signal ***
[r231n04:38480] Signal: Aborted (6)
[r231n04:38480] Signal code:  (-6)
[r231n04:38480] [ 0] linux-vdso64.so.1(__kernel_sigtramp_rt64+0x0)[0x2000000504d8]
[r231n04:38480] [ 1] /lib64/power9/libc.so.6(gsignal+0xd8)[0x20000bb63798]
[r231n04:38480] [ 2] /lib64/power9/libc.so.6(abort+0x164)[0x20000bb43bac]
[r231n04:38480] [ 3] /cineca/prod/opt/compilers/gnu/8.4.0/none/lib64/libstdc++.so.6(_ZN9__gnu_cxx27__verbose_terminate_handlerEv+0x158)[0x20000b32bd38]
[r231n04:38480] [ 4] /cineca/prod/opt/compilers/gnu/8.4.0/none/lib64/libstdc++.so.6(+0xb6c44)[0x20000b326c44]
[r231n04:38480] [ 5] /cineca/prod/opt/compilers/gnu/8.4.0/none/lib64/libstdc++.so.6(_ZSt9terminatev+0x20)[0x20000b326d00]
[r231n04:38480] [ 6] /cineca/prod/opt/compilers/gnu/8.4.0/none/lib64/libstdc++.so.6(__cxa_throw+0x7c)[0x20000b3271dc]
[r231n04:38480] [ 7]   what():  cudaGetDeviceCount(&m_cudaDevCount) error( cudaErrorNoDevice): no CUDA-capable device is detected ../../lib/kokkos/core/src/Cuda/Kokkos_Cuda_Instance.cpp:224
Traceback functionality not available

[r231n02:57303] *** Process received signal ***
[r231n02:57303] Signal: Aborted (6)
[r231n02:57303] Signal code:  (-6)
[r231n02:57303] [ 0] linux-vdso64.so.1(__kernel_sigtramp_rt64+0x0)[0x2000000504d8]
[r231n02:57303] [ 1] terminate called after throwing an instance of 'std::runtime_error'
terminate called after throwing an instance of 'std::runtime_error'
  what():  cudaGetDeviceCount(&m_cudaDevCount) error( cudaErrorNoDevice): no CUDA-capable device is detected ../../lib/kokkos/core/src/Cuda/Kokkos_Cuda_Instance.cpp:224
Traceback functionality not available

[r231n04:38455] *** Process received signal ***
[r231n04:38455] Signal: Aborted (6)
[r231n04:38455] Signal code:  (-6)
[r231n04:38455] [ 0] linux-vdso64.so.1(__kernel_sigtramp_rt64+0x0)[0x2000000504d8]
[r231n04:38455] [ 1] /lib64/power9/libc.so.6(gsignal+0xd8)[0x20000bb63798]
[r231n04:38455] [ 2] /lib64/power9/libc.so.6(abort+0x164)[0x20000bb43bac]
[r231n04:38455] [ 3] /cineca/prod/opt/compilers/gnu/8.4.0/none/lib64/libstdc++.so.6(_ZN9__gnu_cxx27__verbose_terminate_handlerEv+0x158)[0x20000b32bd38]
[r231n04:38455] [ 4] /cineca/prod/opt/compilers/gnu/8.4.0/none/lib64/libstdc++.so.6(+0xb6c44)[0x20000b326c44]
[r231n04:38455] [ 5] /cineca/prod/opt/compilers/gnu/8.4.0/none/lib64/libstdc++.so.6(_ZSt9terminatev+0x20)[0x20000b326d00]
[r231n04:38455] [ 6] /cineca/prod/opt/compilers/gnu/8.4.0/none/lib64/libstdc++.so.6(__cxa_throw+0x7c)[0x20000b3271dc]
[r231n04:38455] [ 7] terminate called after throwing an instance of 'std::runtime_error'
  what():  cudaGetDeviceCount(&m_cudaDevCount) error( cudaErrorNoDevice): no CUDA-capable device is detected ../../lib/kokkos/core/src/Cuda/Kokkos_Cuda_Instance.cpp:224
Traceback functionality not available

[r231n02:57313] *** Process received signal ***
[r231n02:57313] Signal: Aborted (6)
[r231n02:57313] Signal code:  (-6)
[r231n02:57313] [ 0] linux-vdso64.so.1(__kernel_sigtramp_rt64+0x0)[0x2000000504d8]
[r231n02:57313] [ 1] terminate called after throwing an instance of 'std::runtime_error'
terminate called after throwing an instance of 'std::runtime_error'
  what():  cudaGetDeviceCount(&m_cudaDevCount) error( cudaErrorNoDevice): no CUDA-capable device is detected ../../lib/kokkos/core/src/Cuda/Kokkos_Cuda_Instance.cpp:224
Traceback functionality not available

[r231n04:38456] *** Process received signal ***
[r231n04:38456] Signal: Aborted (6)
[r231n04:38456] Signal code:  (-6)
[r231n04:38456] [ 0] linux-vdso64.so.1(__kernel_sigtramp_rt64+0x0)[0x2000000504d8]
[r231n04:38456] [ 1] /lib64/power9/libc.so.6(gsignal+0xd8)[0x20000bb63798]
[r231n04:38456] [ 2] /lib64/power9/libc.so.6(abort+0x164)[0x20000bb43bac]
[r231n04:38456] [ 3] /cineca/prod/opt/compilers/gnu/8.4.0/none/lib64/libstdc++.so.6(_ZN9__gnu_cxx27__verbose_terminate_handlerEv+0x158)[0x20000b32bd38]
[r231n04:38456] [ 4] /cineca/prod/opt/compilers/gnu/8.4.0/none/lib64/libstdc++.so.6(+0xb6c44)[0x20000b326c44]
[r231n04:38456] [ 5] /cineca/prod/opt/compilers/gnu/8.4.0/none/lib64/libstdc++.so.6(_ZSt9terminatev+0x20)[0x20000b326d00]
[r231n04:38456] [ 6] /cineca/prod/opt/compilers/gnu/8.4.0/none/lib64/libstdc++.so.6(__cxa_throw+0x7c)[0x20000b3271dc]
[r231n04:38456] [ 7]   what():  cudaGetDeviceCount(&m_cudaDevCount) error( cudaErrorNoDevice): no CUDA-capable device is detected ../../lib/kokkos/core/src/Cuda/Kokkos_Cuda_Instance.cpp:224
Traceback functionality not available

[r231n02:57311] *** Process received signal ***
[r231n02:57311] Signal: Aborted (6)
[r231n02:57311] Signal code:  (-6)
[r231n02:57311] [ 0] linux-vdso64.so.1(__kernel_sigtramp_rt64+0x0)[0x2000000504d8]
[r231n02:57311] [ 1] terminate called after throwing an instance of 'std::runtime_error'
terminate called after throwing an instance of 'std::runtime_error'
  what():  cudaGetDeviceCount(&m_cudaDevCount) error( cudaErrorNoDevice): no CUDA-capable device is detected ../../lib/kokkos/core/src/Cuda/Kokkos_Cuda_Instance.cpp:224
Traceback functionality not available

[r231n04:38457] *** Process received signal ***
[r231n04:38457] Signal: Aborted (6)
[r231n04:38457] Signal code:  (-6)
[r231n04:38457] [ 0] linux-vdso64.so.1(__kernel_sigtramp_rt64+0x0)[0x2000000504d8]
[r231n04:38457] [ 1] /lib64/power9/libc.so.6(gsignal+0xd8)[0x20000bb63798]
[r231n04:38457] [ 2] /lib64/power9/libc.so.6(abort+0x164)[0x20000bb43bac]
[r231n04:38457] [ 3] /cineca/prod/opt/compilers/gnu/8.4.0/none/lib64/libstdc++.so.6(_ZN9__gnu_cxx27__verbose_terminate_handlerEv+0x158)[0x20000b32bd38]
[r231n04:38457] [ 4] /cineca/prod/opt/compilers/gnu/8.4.0/none/lib64/libstdc++.so.6(+0xb6c44)[0x20000b326c44]
[r231n04:38457] [ 5] /cineca/prod/opt/compilers/gnu/8.4.0/none/lib64/libstdc++.so.6(_ZSt9terminatev+0x20)[0x20000b326d00]
[r231n04:38457] [ 6] /cineca/prod/opt/compilers/gnu/8.4.0/none/lib64/libstdc++.so.6(__cxa_throw+0x7c)[0x20000b3271dc]
[r231n04:38457] [ 7] terminate called after throwing an instance of 'std::runtime_error'
  what():  cudaGetDeviceCount(&m_cudaDevCount) error( cudaErrorNoDevice): no CUDA-capable device is detected ../../lib/kokkos/core/src/Cuda/Kokkos_Cuda_Instance.cpp:224
Traceback functionality not available

[r231n02:57321] *** Process received signal ***
[r231n02:57321] Signal: Aborted (6)
[r231n02:57321] Signal code:  (-6)
[r231n02:57321] [ 0] linux-vdso64.so.1(__kernel_sigtramp_rt64+0x0)[0x2000000504d8]
[r231n02:57321] [ 1] terminate called after throwing an instance of 'std::runtime_error'
  what():  cudaGetDeviceCount(&m_cudaDevCount) error( cudaErrorNoDevice): no CUDA-capable device is detected ../../lib/kokkos/core/src/Cuda/Kokkos_Cuda_Instance.cpp:224
Traceback functionality not available

[r231n04:38454] *** Process received signal ***
[r231n04:38454] Signal: Aborted (6)
[r231n04:38454] Signal code:  (-6)
[r231n04:38454] [ 0] linux-vdso64.so.1(__kernel_sigtramp_rt64+0x0)[0x2000000504d8]
[r231n04:38454] [ 1] /lib64/power9/libc.so.6(gsignal+0xd8)[0x20000bb63798]
[r231n04:38454] [ 2] /lib64/power9/libc.so.6(abort+0x164)[0x20000bb43bac]
[r231n04:38454] [ 3] /cineca/prod/opt/compilers/gnu/8.4.0/none/lib64/libstdc++.so.6(_ZN9__gnu_cxx27__verbose_terminate_handlerEv+0x158)[0x20000b32bd38]
[r231n04:38454] [ 4] /cineca/prod/opt/compilers/gnu/8.4.0/none/lib64/libstdc++.so.6(+0xb6c44)[0x20000b326c44]
[r231n04:38454] [ 5] /cineca/prod/opt/compilers/gnu/8.4.0/none/lib64/libstdc++.so.6(_ZSt9terminatev+0x20)[0x20000b326d00]
[r231n04:38454] [ 6] /cineca/prod/opt/compilers/gnu/8.4.0/none/lib64/libstdc++.so.6(__cxa_throw+0x7c)[0x20000b3271dc]
[r231n04:38454] [ 7] terminate called after throwing an instance of 'std::runtime_error'
terminate called after throwing an instance of 'std::runtime_error'
terminate called after throwing an instance of 'std::runtime_error'
  what():  cudaGetDeviceCount(&m_cudaDevCount) error( cudaErrorNoDevice): no CUDA-capable device is detected ../../lib/kokkos/core/src/Cuda/Kokkos_Cuda_Instance.cpp:224
Traceback functionality not available

[r231n04:38458] *** Process received signal ***
[r231n04:38458] Signal: Aborted (6)
[r231n04:38458] Signal code:  (-6)
[r231n04:38458] [ 0] linux-vdso64.so.1(__kernel_sigtramp_rt64+0x0)[0x2000000504d8]
[r231n04:38458] [ 1] /lib64/power9/libc.so.6(gsignal+0xd8)[0x20000bb63798]
[r231n04:38458] [ 2] /lib64/power9/libc.so.6(abort+0x164)[0x20000bb43bac]
[r231n04:38458] [ 3] /cineca/prod/opt/compilers/gnu/8.4.0/none/lib64/libstdc++.so.6(_ZN9__gnu_cxx27__verbose_terminate_handlerEv+0x158)[0x20000b32bd38]
[r231n04:38458] [ 4] /cineca/prod/opt/compilers/gnu/8.4.0/none/lib64/libstdc++.so.6(+0xb6c44)[0x20000b326c44]
[r231n04:38458] [ 5] /cineca/prod/opt/compilers/gnu/8.4.0/none/lib64/libstdc++.so.6(_ZSt9terminatev+0x20)[0x20000b326d00]
[r231n04:38458] [ 6] /cineca/prod/opt/compilers/gnu/8.4.0/none/lib64/libstdc++.so.6(__cxa_throw+0x7c)[0x20000b3271dc]
[r231n04:38458] [ 7]   what():  cudaGetDeviceCount(&m_cudaDevCount) error( cudaErrorNoDevice): no CUDA-capable device is detected ../../lib/kokkos/core/src/Cuda/Kokkos_Cuda_Instance.cpp:224
Traceback functionality not available

[r231n02:57318] *** Process received signal ***
[r231n02:57318] Signal: Aborted (6)
[r231n02:57318] Signal code:  (-6)
[r231n02:57318] [ 0] linux-vdso64.so.1(__kernel_sigtramp_rt64+0x0)[0x2000000504d8]
[r231n02:57318] [ 1] /lib64/power9/libc.so.6(gsignal+0xd8)[0x20000bb63798]
[r231n02:57318] [ 2] /lib64/power9/libc.so.6(abort+0x164)[0x20000bb43bac]
[r231n02:57318] [ 3] /cineca/prod/opt/compilers/gnu/8.4.0/none/lib64/libstdc++.so.6(_ZN9__gnu_cxx27__verbose_terminate_handlerEv+0x158)[0x20000b32bd38]
[r231n02:57318] [ 4] /cineca/prod/opt/compilers/gnu/8.4.0/none/lib64/libstdc++.so.6(+0xb6c44)[0x20000b326c44]
[r231n02:57318] [ 5] /cineca/prod/opt/compilers/gnu/8.4.0/none/lib64/libstdc++.so.6(_ZSt9terminatev+0x20)[0x20000b326d00]
[r231n02:57318]   what():  cudaGetDeviceCount(&m_cudaDevCount) error( cudaErrorNoDevice): no CUDA-capable device is detected ../../lib/kokkos/core/src/Cuda/Kokkos_Cuda_Instance.cpp:224
Traceback functionality not available

[r231n03:17283] *** Process received signal ***
[r231n03:17283] Signal: Aborted (6)
[r231n03:17283] Signal code:  (-6)
[r231n03:17283] [ 0] linux-vdso64.so.1(__kernel_sigtramp_rt64+0x0)[0x2000000504d8]
[r231n03:17283] [ 1] /lib64/power9/libc.so.6(gsignal+0xd8)[0x20000bb63798]
[r231n03:17283] [ 2] /lib64/power9/libc.so.6(abort+0x164)[0x20000bb43bac]
[r231n03:17283] [ 3] /lib64/power9/libc.so.6(gsignal+0xd8)[0x20000bb63798]
[r231n04:38459] [ 2] /lib64/power9/libc.so.6(abort+0x164)[0x20000bb43bac]
[r231n04:38459] [ 3] /cineca/prod/opt/compilers/gnu/8.4.0/none/lib64/libstdc++.so.6(_ZN9__gnu_cxx27__verbose_terminate_handlerEv+0x158)[0x20000b32bd38]
[r231n04:38459] [ 4] /cineca/prod/opt/compilers/gnu/8.4.0/none/lib64/libstdc++.so.6(+0xb6c44)[0x20000b326c44]
[r231n04:38459] [ 5] /cineca/prod/opt/compilers/gnu/8.4.0/none/lib64/libstdc++.so.6(_ZSt9terminatev+0x20)[0x20000b326d00]
[r231n04:38459] [ 6] /cineca/prod/opt/compilers/gnu/8.4.0/none/lib64/libstdc++.so.6(__cxa_throw+0x7c)[0x20000b3271dc]
[r231n04:38459] [ 7] /lib64/power9/libc.so.6(gsignal+0xd8)[0x20000bb63798]
[r231n02:57311] [ 2] /lib64/power9/libc.so.6(abort+0x164)[0x20000bb43bac]
[r231n02:57311] [ 3] /cineca/prod/opt/compilers/gnu/8.4.0/none/lib64/libstdc++.so.6(_ZN9__gnu_cxx27__verbose_terminate_handlerEv+0x158)[0x20000b32bd38]
[r231n02:57311] [ 4] /cineca/prod/opt/compilers/gnu/8.4.0/none/lib64/libstdc++.so.6(+0xb6c44)[0x20000b326c44]
[r231n02:57311] [ 5] /cineca/prod/opt/compilers/gnu/8.4.0/none/lib64/libstdc++.so.6(_ZSt9terminatev+0x20)[0x20000b326d00]
  what():  cudaGetDeviceCount(&m_cudaDevCount) error( cudaErrorNoDevice): no CUDA-capable device is detected ../../lib/kokkos/core/src/Cuda/Kokkos_Cuda_Instance.cpp:224
Traceback functionality not available

[r231n03:17285] *** Process received signal ***
[r231n03:17285] Signal: Aborted (6)
[r231n03:17285] Signal code:  (-6)
[r231n03:17285] [ 0] linux-vdso64.so.1(__kernel_sigtramp_rt64+0x0)[0x2000000504d8]
[r231n03:17285] [ 1] terminate called after throwing an instance of 'std::runtime_error'
  what():  cudaGetDeviceCount(&m_cudaDevCount) error( cudaErrorNoDevice): no CUDA-capable device is detected ../../lib/kokkos/core/src/Cuda/Kokkos_Cuda_Instance.cpp:224
Traceback functionality not available

[r231n04:38464] *** Process received signal ***
[r231n04:38464] Signal: Aborted (6)
[r231n04:38464] Signal code:  (-6)
[r231n04:38464] [ 0] linux-vdso64.so.1(__kernel_sigtramp_rt64+0x0)[0x2000000504d8]
[r231n04:38464] [ 1] /lib64/power9/libc.so.6(gsignal+0xd8)[0x20000bb63798]
[r231n04:38464] [ 2] /lib64/power9/libc.so.6(abort+0x164)[0x20000bb43bac]
[r231n04:38464] [ 3] /cineca/prod/opt/compilers/gnu/8.4.0/none/lib64/libstdc++.so.6(_ZN9__gnu_cxx27__verbose_terminate_handlerEv+0x158)[0x20000b32bd38]
[r231n04:38464] [ 4] /cineca/prod/opt/compilers/gnu/8.4.0/none/lib64/libstdc++.so.6(+0xb6c44)[0x20000b326c44]
[r231n04:38464] [ 5] /cineca/prod/opt/compilers/gnu/8.4.0/none/lib64/libstdc++.so.6(_ZSt9terminatev+0x20)[0x20000b326d00]
[r231n04:38464] [ 6] /cineca/prod/opt/compilers/gnu/8.4.0/none/lib64/libstdc++.so.6(__cxa_throw+0x7c)[0x20000b3271dc]
[r231n04:38464] [ 7]   what():  cudaGetDeviceCount(&m_cudaDevCount) error( cudaErrorNoDevice): no CUDA-capable device is detected ../../lib/kokkos/core/src/Cuda/Kokkos_Cuda_Instance.cpp:224
Traceback functionality not available

[r231n02:57314] *** Process received signal ***
[r231n02:57314] Signal: Aborted (6)
[r231n02:57314] Signal code:  (-6)
[r231n02:57314] [ 0] linux-vdso64.so.1(__kernel_sigtramp_rt64+0x0)[0x2000000504d8]
[r231n02:57314] [ 1] /lib64/power9/libc.so.6(gsignal+0xd8)[0x20000bb63798]
[r231n02:57314] [ 2] /lib64/power9/libc.so.6(abort+0x164)[0x20000bb43bac]
[r231n02:57314] [ 3] /cineca/prod/opt/compilers/gnu/8.4.0/none/lib64/libstdc++.so.6(_ZN9__gnu_cxx27__verbose_terminate_handlerEv+0x158)[0x20000b32bd38]
[r231n02:57314] [ 4] /cineca/prod/opt/compilers/gnu/8.4.0/none/lib64/libstdc++.so.6(+0xb6c44)[0x20000b326c44]
[r231n02:57314] [ 5]   what():  cudaGetDeviceCount(&m_cudaDevCount) error( cudaErrorNoDevice): no CUDA-capable device is detected ../../lib/kokkos/core/src/Cuda/Kokkos_Cuda_Instance.cpp:224
Traceback functionality not available

[r231n03:17288] *** Process received signal ***
[r231n03:17288] Signal: Aborted (6)
[r231n03:17288] Signal code:  (-6)
[r231n03:17288] [ 0] linux-vdso64.so.1(__kernel_sigtramp_rt64+0x0)[0x2000000504d8]
[r231n03:17288] [ 1] /lib64/power9/libc.so.6(gsignal+0xd8)[0x20000bb63798]
[r231n03:17288] [ 2] /lib64/power9/libc.so.6(abort+0x164)[0x20000bb43bac]
[r231n03:17288] [ 3] terminate called after throwing an instance of 'std::runtime_error'
  what():  cudaGetDeviceCount(&m_cudaDevCount) error( cudaErrorNoDevice): no CUDA-capable device is detected ../../lib/kokkos/core/src/Cuda/Kokkos_Cuda_Instance.cpp:224
Traceback functionality not available

[r231n04:38462] *** Process received signal ***
[r231n04:38462] Signal: Aborted (6)
[r231n04:38462] Signal code:  (-6)
[r231n04:38462] [ 0] linux-vdso64.so.1(__kernel_sigtramp_rt64+0x0)[0x2000000504d8]
[r231n04:38462] [ 1] /lib64/power9/libc.so.6(gsignal+0xd8)[0x20000bb63798]
[r231n04:38462] [ 2] /lib64/power9/libc.so.6(abort+0x164)[0x20000bb43bac]
[r231n04:38462] [ 3] /cineca/prod/opt/compilers/gnu/8.4.0/none/lib64/libstdc++.so.6(_ZN9__gnu_cxx27__verbose_terminate_handlerEv+0x158)[0x20000b32bd38]
[r231n04:38462] [ 4] /cineca/prod/opt/compilers/gnu/8.4.0/none/lib64/libstdc++.so.6(+0xb6c44)[0x20000b326c44]
[r231n04:38462] [ 5] /cineca/prod/opt/compilers/gnu/8.4.0/none/lib64/libstdc++.so.6(_ZSt9terminatev+0x20)[0x20000b326d00]
[r231n04:38462] [ 6] /cineca/prod/opt/compilers/gnu/8.4.0/none/lib64/libstdc++.so.6(__cxa_throw+0x7c)[0x20000b3271dc]
[r231n04:38462] [ 7] /lib64/power9/libc.so.6(gsignal+0xd8)[0x20000bb63798]
[r231n02:57321] [ 2] /lib64/power9/libc.so.6(abort+0x164)[0x20000bb43bac]
[r231n02:57321] [ 3] /cineca/prod/opt/compilers/gnu/8.4.0/none/lib64/libstdc++.so.6(_ZN9__gnu_cxx27__verbose_terminate_handlerEv+0x158)[0x20000b32bd38]
[r231n02:57321] [ 4] /cineca/prod/opt/compilers/gnu/8.4.0/none/lib64/libstdc++.so.6(+0xb6c44)[0x20000b326c44]
[r231n02:57321] [ 5] /cineca/prod/opt/compilers/gnu/8.4.0/none/lib64/libstdc++.so.6(_ZSt9terminatev+0x20)[0x20000b326d00]
[r231n02:57321] [ 6]   what():  cudaGetDeviceCount(&m_cudaDevCount) error( cudaErrorNoDevice): no CUDA-capable device is detected ../../lib/kokkos/core/src/Cuda/Kokkos_Cuda_Instance.cpp:224
Traceback functionality not available

[r231n03:17287] *** Process received signal ***
[r231n03:17287] Signal: Aborted (6)
[r231n03:17287] Signal code:  (-6)
[r231n03:17287] [ 0] linux-vdso64.so.1(__kernel_sigtramp_rt64+0x0)[0x2000000504d8]
[r231n03:17287] [ 1] /lib64/power9/libc.so.6(gsignal+0xd8)[0x20000bb63798]
[r231n03:17287] [ 2] /lib64/power9/libc.so.6(abort+0x164)[0x20000bb43bac]
[r231n03:17287] [ 3] /lib64/power9/libc.so.6(gsignal+0xd8)[0x20000bb63798]
[r231n04:38460] [ 2] /lib64/power9/libc.so.6(abort+0x164)[0x20000bb43bac]
[r231n04:38460] [ 3] /cineca/prod/opt/compilers/gnu/8.4.0/none/lib64/libstdc++.so.6(_ZN9__gnu_cxx27__verbose_terminate_handlerEv+0x158)[0x20000b32bd38]
[r231n04:38460] [ 4] /cineca/prod/opt/compilers/gnu/8.4.0/none/lib64/libstdc++.so.6(+0xb6c44)[0x20000b326c44]
[r231n04:38460] [ 5] /cineca/prod/opt/compilers/gnu/8.4.0/none/lib64/libstdc++.so.6(_ZSt9terminatev+0x20)[0x20000b326d00]
[r231n04:38460] [ 6] /cineca/prod/opt/compilers/gnu/8.4.0/none/lib64/libstdc++.so.6(__cxa_throw+0x7c)[0x20000b3271dc]
[r231n04:38460] [ 7]   what():  cudaGetDeviceCount(&m_cudaDevCount) error( cudaErrorNoDevice): no CUDA-capable device is detected ../../lib/kokkos/core/src/Cuda/Kokkos_Cuda_Instance.cpp:224
Traceback functionality not available

[r231n02:57322] *** Process received signal ***
[r231n02:57322] Signal: Aborted (6)
[r231n02:57322] Signal code:  (-6)
[r231n02:57322] [ 0] linux-vdso64.so.1(__kernel_sigtramp_rt64+0x0)[0x2000000504d8]
[r231n02:57322] [ 1] /lib64/power9/libc.so.6(gsignal+0xd8)[0x20000bb63798]
[r231n02:57322] [ 2] /lib64/power9/libc.so.6(abort+0x164)[0x20000bb43bac]
[r231n02:57322] [ 3] /cineca/prod/opt/compilers/gnu/8.4.0/none/lib64/libstdc++.so.6(_ZN9__gnu_cxx27__verbose_terminate_handlerEv+0x158)[0x20000b32bd38]
[r231n02:57322] [ 4] /cineca/prod/opt/compilers/gnu/8.4.0/none/lib64/libstdc++.so.6(+0xb6c44)[0x20000b326c44]
[r231n02:57322] [ 5]   what():  cudaGetDeviceCount(&m_cudaDevCount) error( cudaErrorNoDevice): no CUDA-capable device is detected ../../lib/kokkos/core/src/Cuda/Kokkos_Cuda_Instance.cpp:224
Traceback functionality not available

[r231n03:17292] *** Process received signal ***
[r231n03:17292] Signal: Aborted (6)
[r231n03:17292] Signal code:  (-6)
[r231n03:17292] [ 0] linux-vdso64.so.1(__kernel_sigtramp_rt64+0x0)[0x2000000504d8]
[r231n03:17292] [ 1] /lib64/power9/libc.so.6(gsignal+0xd8)[0x20000bb63798]
[r231n03:17292] [ 2] /lib64/power9/libc.so.6(gsignal+0xd8)[0x20000bb63798]
[...]
[r231n02:57302] [18] /lib64/power9/libc.so.6(__libc_start_main+0xb4)[0x20000bb443e4]
[r231n02:57302] *** End of error message ***
lmp_kokkos_cuda_mpi(main+0x60)[0x1086af40]
[r231n03:17286] [17] /lib64/power9/libc.so.6(+0x241f8)[0x20000bb441f8]
[r231n03:17286] [18] /lib64/power9/libc.so.6(__libc_start_main+0xb4)[0x20000bb443e4]
[r231n03:17286] *** End of error message ***
lmp_kokkos_cuda_mpi(main+0x60)[0x1086af40]
[r231n04:38467] [17] /lib64/power9/libc.so.6(+0x241f8)[0x20000bb441f8]
[r231n04:38467] [18] /lib64/power9/libc.so.6(__libc_start_main+0xb4)[0x20000bb443e4]
[r231n04:38467] *** End of error message ***
lmp_kokkos_cuda_mpi(_ZN9LAMMPS_NS6LAMMPSC2EiPPcP19ompi_communicator_t+0x3728)[0x11099d08]
[r231n02:57315] [16] lmp_kokkos_cuda_mpi(main+0x60)[0x1086af40]
[r231n03:17276] [17] /lib64/power9/libc.so.6(+0x241f8)[0x20000bb441f8]
[r231n03:17276] [18] /lib64/power9/libc.so.6(__libc_start_main+0xb4)[0x20000bb443e4]
[r231n03:17276] *** End of error message ***
lmp_kokkos_cuda_mpi(main+0x60)[0x1086af40]
[r231n04:38457] [17] /lib64/power9/libc.so.6(+0x241f8)[0x20000bb441f8]
[r231n04:38457] [18] /lib64/power9/libc.so.6(__libc_start_main+0xb4)[0x20000bb443e4]
[r231n04:38457] *** End of error message ***
lmp_kokkos_cuda_mpi(main+0x60)[0x1086af40]
[r231n02:57319] [17] /lib64/power9/libc.so.6(+0x241f8)[0x20000bb441f8]
[r231n02:57319] [18] /lib64/power9/libc.so.6(__libc_start_main+0xb4)[0x20000bb443e4]
[r231n02:57319] *** End of error message ***
lmp_kokkos_cuda_mpi(main+0x60)[0x1086af40]
[r231n03:17269] [17] /lib64/power9/libc.so.6(+0x241f8)[0x20000bb441f8]
[r231n03:17269] [18] lmp_kokkos_cuda_mpi(main+0x60)[0x1086af40]
[r231n04:38474] [17] /lib64/power9/libc.so.6(+0x241f8)[0x20000bb441f8]
[r231n04:38474] [18] /lib64/power9/libc.so.6(__libc_start_main+0xb4)[0x20000bb443e4]
[r231n04:38474] *** End of error message ***
lmp_kokkos_cuda_mpi(_ZN9LAMMPS_NS6LAMMPSC2EiPPcP19ompi_communicator_t+0x3728)[0x11099d08]
[r231n02:57310] [16] lmp_kokkos_cuda_mpi(_ZN9LAMMPS_NS6LAMMPSC2EiPPcP19ompi_communicator_t+0x3728)[0x11099d08]
[r231n03:17293] [16] lmp_kokkos_cuda_mpi(main+0x60)[0x1086af40]
[r231n04:38470] [17] /lib64/power9/libc.so.6(+0x241f8)[0x20000bb441f8]
[r231n04:38470] [18] /lib64/power9/libc.so.6(__libc_start_main+0xb4)[0x20000bb443e4]
[r231n04:38470] *** End of error message ***
lmp_kokkos_cuda_mpi(main+0x60)[0x1086af40]
[r231n02:57301] [17] /lib64/power9/libc.so.6(+0x241f8)[0x20000bb441f8]
[r231n02:57301] [18] /lib64/power9/libc.so.6(__libc_start_main+0xb4)[0x20000bb443e4]
[r231n02:57301] *** End of error message ***
/lib64/power9/libc.so.6(__libc_start_main+0xb4)[0x20000bb443e4]
[r231n03:17296] *** End of error message ***
lmp_kokkos_cuda_mpi(main+0x60)[0x1086af40]
[r231n04:38465] [17] /lib64/power9/libc.so.6(+0x241f8)[0x20000bb441f8]
[r231n04:38465] [18] /lib64/power9/libc.so.6(__libc_start_main+0xb4)[0x20000bb443e4]
[r231n04:38465] *** End of error message ***
lmp_kokkos_cuda_mpi(_ZN9LAMMPS_NS6LAMMPSC2EiPPcP19ompi_communicator_t+0x3728)[0x11099d08]
[r231n02:57295] [16] lmp_kokkos_cuda_mpi(main+0x60)[0x1086af40]
[r231n03:17283] [17] /lib64/power9/libc.so.6(+0x241f8)[0x20000bb441f8]
[r231n03:17283] [18] /lib64/power9/libc.so.6(__libc_start_main+0xb4)[0x20000bb443e4]
[r231n03:17283] *** End of error message ***
lmp_kokkos_cuda_mpi(main+0x60)[0x1086af40]
[r231n04:38484] [17] /lib64/power9/libc.so.6(+0x241f8)[0x20000bb441f8]
[r231n04:38484] [18] /lib64/power9/libc.so.6(__libc_start_main+0xb4)[0x20000bb443e4]
[r231n04:38484] *** End of error message ***
lmp_kokkos_cuda_mpi(main+0x60)[0x1086af40]
[r231n02:57320] [17] /lib64/power9/libc.so.6(+0x241f8)[0x20000bb441f8]
[r231n02:57320] [18] /lib64/power9/libc.so.6(__libc_start_main+0xb4)[0x20000bb443e4]
[r231n02:57320] *** End of error message ***
lmp_kokkos_cuda_mpi(main+0x60)[0x1086af40]
[r231n03:17290] [17] /lib64/power9/libc.so.6(+0x241f8)[0x20000bb441f8]
[r231n03:17290] [18] /lib64/power9/libc.so.6(__libc_start_main+0xb4)[0x20000bb443e4]
[r231n03:17290] *** End of error message ***
lmp_kokkos_cuda_mpi(main+0x60)[0x1086af40]
[r231n04:38479] [17] /lib64/power9/libc.so.6(+0x241f8)[0x20000bb441f8]
[r231n04:38479] [18] /lib64/power9/libc.so.6(__libc_start_main+0xb4)[0x20000bb443e4]
[r231n04:38479] *** End of error message ***
lmp_kokkos_cuda_mpi(main+0x60)[0x1086af40]
[r231n02:57297] [17] /lib64/power9/libc.so.6(+0x241f8)[0x20000bb441f8]
[r231n02:57297] [18] /lib64/power9/libc.so.6(__libc_start_main+0xb4)[0x20000bb443e4]
[r231n02:57297] *** End of error message ***
lmp_kokkos_cuda_mpi(main+0x60)[0x1086af40]
[r231n03:17279] [17] /lib64/power9/libc.so.6(+0x241f8)[0x20000bb441f8]
[r231n03:17279] [18] /lib64/power9/libc.so.6(__libc_start_main+0xb4)[0x20000bb443e4]
[r231n03:17279] *** End of error message ***
lmp_kokkos_cuda_mpi(_ZN9LAMMPS_NS6LAMMPSC2EiPPcP19ompi_communicator_t+0x3728)[0x11099d08]
[r231n04:38464] [16] lmp_kokkos_cuda_mpi(main+0x60)[0x1086af40]
[r231n02:57324] [17] /lib64/power9/libc.so.6(+0x241f8)[0x20000bb441f8]
[r231n02:57324] [18] /lib64/power9/libc.so.6(__libc_start_main+0xb4)[0x20000bb443e4]
[r231n02:57324] *** End of error message ***
lmp_kokkos_cuda_mpi(main+0x60)[0x1086af40]
[r231n03:17282] [17] /lib64/power9/libc.so.6(+0x241f8)[0x20000bb441f8]
[r231n03:17282] [18] /lib64/power9/libc.so.6(__libc_start_main+0xb4)[0x20000bb443e4]
[r231n03:17282] *** End of error message ***
lmp_kokkos_cuda_mpi(main+0x60)[0x1086af40]
[r231n04:38460] [17] /lib64/power9/libc.so.6(+0x241f8)[0x20000bb441f8]
[r231n04:38460] [18] /lib64/power9/libc.so.6(__libc_start_main+0xb4)[0x20000bb443e4]
[r231n04:38460] *** End of error message ***
lmp_kokkos_cuda_mpi(main+0x60)[0x1086af40]
[r231n02:57299] [17] /lib64/power9/libc.so.6(+0x241f8)[0x20000bb441f8]
[r231n02:57299] [18] /lib64/power9/libc.so.6(__libc_start_main+0xb4)[0x20000bb443e4]
[r231n02:57299] *** End of error message ***
lmp_kokkos_cuda_mpi(main+0x60)[0x1086af40]
[r231n03:17271] [17] /lib64/power9/libc.so.6(+0x241f8)[0x20000bb441f8]
[r231n03:17271] [18] /lib64/power9/libc.so.6(__libc_start_main+0xb4)[0x20000bb443e4]
[r231n03:17271] *** End of error message ***
lmp_kokkos_cuda_mpi(main+0x60)[0x1086af40]
[r231n04:38462] [17] /lib64/power9/libc.so.6(+0x241f8)[0x20000bb441f8]
[r231n04:38462] [18] /lib64/power9/libc.so.6(__libc_start_main+0xb4)[0x20000bb443e4]
[r231n04:38462] *** End of error message ***
lmp_kokkos_cuda_mpi(main+0x60)[0x1086af40]
[r231n02:57313] [17] /lib64/power9/libc.so.6(+0x241f8)[0x20000bb441f8]
[r231n02:57313] [18] /lib64/power9/libc.so.6(__libc_start_main+0xb4)[0x20000bb443e4]
[r231n02:57313] *** End of error message ***
lmp_kokkos_cuda_mpi(_ZN9LAMMPS_NS6LAMMPSC2EiPPcP19ompi_communicator_t+0x3728)[0x11099d08]
[r231n03:17288] [16] lmp_kokkos_cuda_mpi(main+0x60)[0x1086af40]
[r231n04:38461] [17] /lib64/power9/libc.so.6(+0x241f8)[0x20000bb441f8]
[r231n04:38461] [18] /lib64/power9/libc.so.6(__libc_start_main+0xb4)[0x20000bb443e4]
[r231n04:38461] *** End of error message ***
lmp_kokkos_cuda_mpi(main+0x60)[0x1086af40]
[r231n02:57309] [17] /lib64/power9/libc.so.6(+0x241f8)[0x20000bb441f8]
[r231n02:57309] [18] /lib64/power9/libc.so.6(__libc_start_main+0xb4)[0x20000bb443e4]
[r231n02:57309] *** End of error message ***
lmp_kokkos_cuda_mpi(main+0x60)[0x1086af40]
[r231n03:17274] [17] /lib64/power9/libc.so.6(+0x241f8)[0x20000bb441f8]
[r231n03:17274] [18] /lib64/power9/libc.so.6(__libc_start_main+0xb4)[0x20000bb443e4]
[r231n03:17274] *** End of error message ***
lmp_kokkos_cuda_mpi(main+0x60)[0x1086af40]
[r231n04:38480] [17] /lib64/power9/libc.so.6(+0x241f8)[0x20000bb441f8]
[r231n04:38480] [18] /lib64/power9/libc.so.6(__libc_start_main+0xb4)[0x20000bb443e4]
[r231n04:38480] *** End of error message ***
lmp_kokkos_cuda_mpi(main+0x60)[0x1086af40]
[r231n02:57321] [17] /lib64/power9/libc.so.6(+0x241f8)[0x20000bb441f8]
[r231n02:57321] [18] /lib64/power9/libc.so.6(__libc_start_main+0xb4)[0x20000bb443e4]
[r231n02:57321] *** End of error message ***
lmp_kokkos_cuda_mpi(main+0x60)[0x1086af40]
[r231n03:17285] [17] /lib64/power9/libc.so.6(+0x241f8)[0x20000bb441f8]
[r231n03:17285] [18] /lib64/power9/libc.so.6(__libc_start_main+0xb4)[0x20000bb443e4]
[r231n03:17285] *** End of error message ***
lmp_kokkos_cuda_mpi(_ZN9LAMMPS_NS6LAMMPSC2EiPPcP19ompi_communicator_t+0x3728)[0x11099d08]
[r231n04:38473] [16] lmp_kokkos_cuda_mpi(main+0x60)[0x1086af40]
[r231n02:57300] [17] /lib64/power9/libc.so.6(+0x241f8)[0x20000bb441f8]
[r231n02:57300] [18] /lib64/power9/libc.so.6(__libc_start_main+0xb4)[0x20000bb443e4]
[r231n02:57300] *** End of error message ***
lmp_kokkos_cuda_mpi(main+0x60)[0x1086af40]
[r231n03:17272] [17] /lib64/power9/libc.so.6(+0x241f8)[0x20000bb441f8]
[r231n03:17272] [18] /lib64/power9/libc.so.6(__libc_start_main+0xb4)[0x20000bb443e4]
[r231n03:17272] *** End of error message ***
lmp_kokkos_cuda_mpi(main+0x60)[0x1086af40]
[r231n04:38478] [17] /lib64/power9/libc.so.6(+0x241f8)[0x20000bb441f8]
[r231n04:38478] [18] /lib64/power9/libc.so.6(__libc_start_main+0xb4)[0x20000bb443e4]
[r231n04:38478] *** End of error message ***
/lib64/power9/libc.so.6(__libc_start_main+0xb4)[0x20000bb443e4]
[r231n02:57316] *** End of error message ***
lmp_kokkos_cuda_mpi(main+0x60)[0x1086af40]
[r231n03:17297] [17] /lib64/power9/libc.so.6(+0x241f8)[0x20000bb441f8]
[r231n03:17297] [18] /lib64/power9/libc.so.6(__libc_start_main+0xb4)[0x20000bb443e4]
[r231n03:17297] *** End of error message ***
lmp_kokkos_cuda_mpi(main+0x60)[0x1086af40]
[r231n04:38459] [17] /lib64/power9/libc.so.6(+0x241f8)[0x20000bb441f8]
[r231n04:38459] [18] /lib64/power9/libc.so.6(__libc_start_main+0xb4)[0x20000bb443e4]
[r231n04:38459] *** End of error message ***
lmp_kokkos_cuda_mpi(_ZN9LAMMPS_NS6LAMMPSC2EiPPcP19ompi_communicator_t+0x3728)[0x11099d08]
[r231n02:57311] [16] lmp_kokkos_cuda_mpi(main+0x60)[0x1086af40]
[r231n03:17277] [17] /lib64/power9/libc.so.6(+0x241f8)[0x20000bb441f8]
[r231n03:17277] [18] /lib64/power9/libc.so.6(__libc_start_main+0xb4)[0x20000bb443e4]
[r231n03:17277] *** End of error message ***
lmp_kokkos_cuda_mpi(main+0x60)[0x1086af40]
[r231n04:38456] [17] /lib64/power9/libc.so.6(+0x241f8)[0x20000bb441f8]
[r231n04:38456] [18] /lib64/power9/libc.so.6(__libc_start_main+0xb4)[0x20000bb443e4]
[r231n04:38456] *** End of error message ***
lmp_kokkos_cuda_mpi(main+0x60)[0x1086af40]
[r231n02:57318] [17] /lib64/power9/libc.so.6(+0x241f8)[0x20000bb441f8]
[r231n02:57318] [18] /lib64/power9/libc.so.6(__libc_start_main+0xb4)[0x20000bb443e4]
[r231n02:57318] *** End of error message ***
lmp_kokkos_cuda_mpi(main+0x60)[0x1086af40]
[r231n03:17294] [17] /lib64/power9/libc.so.6(+0x241f8)[0x20000bb441f8]
[r231n03:17294] [18] /lib64/power9/libc.so.6(__libc_start_main+0xb4)[0x20000bb443e4]
[r231n03:17294] *** End of error message ***
lmp_kokkos_cuda_mpi(_ZN9LAMMPS_NS6LAMMPSC2EiPPcP19ompi_communicator_t+0x3728)[0x11099d08]
[r231n04:38481] [16] lmp_kokkos_cuda_mpi(main+0x60)[0x1086af40]
[r231n02:57312] [17] /lib64/power9/libc.so.6(+0x241f8)[0x20000bb441f8]
[r231n02:57312] [18] /lib64/power9/libc.so.6(__libc_start_main+0xb4)[0x20000bb443e4]
[r231n02:57312] *** End of error message ***
lmp_kokkos_cuda_mpi(main+0x60)[0x1086af40]
[r231n03:17270] [17] /lib64/power9/libc.so.6(+0x241f8)[0x20000bb441f8]
[r231n03:17270] [18] /lib64/power9/libc.so.6(__libc_start_main+0xb4)[0x20000bb443e4]
[r231n03:17270] *** End of error message ***
lmp_kokkos_cuda_mpi(main+0x60)[0x1086af40]
[r231n04:38472] [17] /lib64/power9/libc.so.6(+0x241f8)[0x20000bb441f8]
[r231n04:38472] [18] /lib64/power9/libc.so.6(__libc_start_main+0xb4)[0x20000bb443e4]
[r231n04:38472] *** End of error message ***
lmp_kokkos_cuda_mpi(main+0x60)[0x1086af40]
[r231n02:57325] [17] /lib64/power9/libc.so.6(+0x241f8)[0x20000bb441f8]
[r231n02:57325] [18] /lib64/power9/libc.so.6(__libc_start_main+0xb4)[0x20000bb443e4]
[r231n02:57325] *** End of error message ***
lmp_kokkos_cuda_mpi(main+0x60)[0x1086af40]
[r231n03:17299] [17] /lib64/power9/libc.so.6(+0x241f8)[0x20000bb441f8]
[r231n03:17299] [18] /lib64/power9/libc.so.6(__libc_start_main+0xb4)[0x20000bb443e4]
[r231n03:17299] *** End of error message ***
lmp_kokkos_cuda_mpi(main+0x60)[0x1086af40]
[r231n04:38466] [17] /lib64/power9/libc.so.6(+0x241f8)[0x20000bb441f8]
[r231n04:38466] [18] /lib64/power9/libc.so.6(__libc_start_main+0xb4)[0x20000bb443e4]
[r231n04:38466] *** End of error message ***
lmp_kokkos_cuda_mpi(main+0x60)[0x1086af40]
[r231n02:57305] [17] /lib64/power9/libc.so.6(+0x241f8)[0x20000bb441f8]
[r231n02:57305] [18] /lib64/power9/libc.so.6(__libc_start_main+0xb4)[0x20000bb443e4]
[r231n02:57305] *** End of error message ***
lmp_kokkos_cuda_mpi(main+0x60)[0x1086af40]
[r231n03:17284] [17] /lib64/power9/libc.so.6(+0x241f8)[0x20000bb441f8]
[r231n03:17284] [18] /lib64/power9/libc.so.6(__libc_start_main+0xb4)[0x20000bb443e4]
[r231n03:17284] *** End of error message ***
lmp_kokkos_cuda_mpi(main+0x60)[0x1086af40]
[r231n04:38471] [17] /lib64/power9/libc.so.6(+0x241f8)[0x20000bb441f8]
[r231n04:38471] [18] /lib64/power9/libc.so.6(__libc_start_main+0xb4)[0x20000bb443e4]
[r231n04:38471] *** End of error message ***
lmp_kokkos_cuda_mpi(main+0x60)[0x1086af40]
[r231n02:57308] [17] /lib64/power9/libc.so.6(+0x241f8)[0x20000bb441f8]
[r231n02:57308] [18] /lib64/power9/libc.so.6(__libc_start_main+0xb4)[0x20000bb443e4]
[r231n02:57308] *** End of error message ***
lmp_kokkos_cuda_mpi(main+0x60)[0x1086af40]
[r231n03:17289] [17] /lib64/power9/libc.so.6(+0x241f8)[0x20000bb441f8]
[r231n03:17289] [18] /lib64/power9/libc.so.6(__libc_start_main+0xb4)[0x20000bb443e4]
[r231n03:17289] *** End of error message ***
lmp_kokkos_cuda_mpi(main+0x60)[0x1086af40]
[r231n04:38463] [17] /lib64/power9/libc.so.6(+0x241f8)[0x20000bb441f8]
[r231n04:38463] [18] /lib64/power9/libc.so.6(__libc_start_main+0xb4)[0x20000bb443e4]
[r231n04:38463] *** End of error message ***
lmp_kokkos_cuda_mpi(main+0x60)[0x1086af40]
[r231n04:38476] [17] /lib64/power9/libc.so.6(+0x241f8)[0x20000bb441f8]
[r231n04:38476] [18] /lib64/power9/libc.so.6(__libc_start_main+0xb4)[0x20000bb443e4]
[r231n04:38476] *** End of error message ***
lmp_kokkos_cuda_mpi(main+0x60)[0x1086af40]
[r231n02:57303] [17] /lib64/power9/libc.so.6(+0x241f8)[0x20000bb441f8]
[r231n02:57303] [18] /lib64/power9/libc.so.6(__libc_start_main+0xb4)[0x20000bb443e4]
[r231n02:57303] *** End of error message ***
lmp_kokkos_cuda_mpi(main+0x60)[0x1086af40]
[r231n03:17273] [17] /lib64/power9/libc.so.6(+0x241f8)[0x20000bb441f8]
[r231n03:17273] [18] /lib64/power9/libc.so.6(__libc_start_main+0xb4)[0x20000bb443e4]
[r231n03:17273] *** End of error message ***
lmp_kokkos_cuda_mpi(main+0x60)[0x1086af40]
[r231n02:57295] [17] /lib64/power9/libc.so.6(+0x241f8)[0x20000bb441f8]
[r231n02:57295] [18] /lib64/power9/libc.so.6(__libc_start_main+0xb4)[0x20000bb443e4]
[r231n02:57295] *** End of error message ***
/lib64/power9/libc.so.6(__libc_start_main+0xb4)[0x20000bb443e4]
[r231n03:17269] *** End of error message ***
lmp_kokkos_cuda_mpi(main+0x60)[0x1086af40]
[r231n04:38453] [17] /lib64/power9/libc.so.6(+0x241f8)[0x20000bb441f8]
[r231n04:38453] [18] /lib64/power9/libc.so.6(__libc_start_main+0xb4)[0x20000bb443e4]
[r231n04:38453] *** End of error message ***
lmp_kokkos_cuda_mpi(main+0x60)[0x1086af40]
[r231n02:57310] [17] /lib64/power9/libc.so.6(+0x241f8)[0x20000bb441f8]
[r231n02:57310] [18] /lib64/power9/libc.so.6(__libc_start_main+0xb4)[0x20000bb443e4]
[r231n02:57310] *** End of error message ***
lmp_kokkos_cuda_mpi(main+0x60)[0x1086af40]
[r231n03:17295] [17] /lib64/power9/libc.so.6(+0x241f8)[0x20000bb441f8]
[r231n03:17295] [18] /lib64/power9/libc.so.6(__libc_start_main+0xb4)[0x20000bb443e4]
[r231n03:17295] *** End of error message ***
lmp_kokkos_cuda_mpi(main+0x60)[0x1086af40]
[r231n04:38455] [17] /lib64/power9/libc.so.6(+0x241f8)[0x20000bb441f8]
[r231n04:38455] [18] /lib64/power9/libc.so.6(__libc_start_main+0xb4)[0x20000bb443e4]
[r231n04:38455] *** End of error message ***
lmp_kokkos_cuda_mpi(main+0x60)[0x1086af40]
[r231n02:57323] [17] /lib64/power9/libc.so.6(+0x241f8)[0x20000bb441f8]
[r231n02:57323] [18] /lib64/power9/libc.so.6(__libc_start_main+0xb4)[0x20000bb443e4]
[r231n02:57323] *** End of error message ***
lmp_kokkos_cuda_mpi(main+0x60)[0x1086af40]
[r231n03:17291] [17] /lib64/power9/libc.so.6(+0x241f8)[0x20000bb441f8]
[r231n03:17291] [18] /lib64/power9/libc.so.6(__libc_start_main+0xb4)[0x20000bb443e4]
[r231n03:17291] *** End of error message ***
lmp_kokkos_cuda_mpi(main+0x60)[0x1086af40]
[r231n04:38464] [17] /lib64/power9/libc.so.6(+0x241f8)[0x20000bb441f8]
[r231n04:38464] [18] /lib64/power9/libc.so.6(__libc_start_main+0xb4)[0x20000bb443e4]
[r231n04:38464] *** End of error message ***
lmp_kokkos_cuda_mpi(main+0x60)[0x1086af40]
[r231n02:57317] [17] /lib64/power9/libc.so.6(+0x241f8)[0x20000bb441f8]
[r231n02:57317] [18] /lib64/power9/libc.so.6(__libc_start_main+0xb4)[0x20000bb443e4]
[r231n02:57317] *** End of error message ***
lmp_kokkos_cuda_mpi(main+0x60)[0x1086af40]
[r231n03:17281] [17] /lib64/power9/libc.so.6(+0x241f8)[0x20000bb441f8]
[r231n03:17281] [18] /lib64/power9/libc.so.6(__libc_start_main+0xb4)[0x20000bb443e4]
[r231n03:17281] *** End of error message ***
lmp_kokkos_cuda_mpi(main+0x60)[0x1086af40]
[r231n04:38469] [17] /lib64/power9/libc.so.6(+0x241f8)[0x20000bb441f8]
[r231n04:38469] [18] /lib64/power9/libc.so.6(__libc_start_main+0xb4)[0x20000bb443e4]
[r231n04:38469] *** End of error message ***
lmp_kokkos_cuda_mpi(main+0x60)[0x1086af40]
[r231n02:57311] [17] /lib64/power9/libc.so.6(+0x241f8)[0x20000bb441f8]
[r231n02:57311] [18] /lib64/power9/libc.so.6(__libc_start_main+0xb4)[0x20000bb443e4]
[r231n02:57311] *** End of error message ***
lmp_kokkos_cuda_mpi(main+0x60)[0x1086af40]
[r231n03:17292] [17] /lib64/power9/libc.so.6(+0x241f8)[0x20000bb441f8]
[r231n03:17292] [18] /lib64/power9/libc.so.6(__libc_start_main+0xb4)[0x20000bb443e4]
[r231n03:17292] *** End of error message ***
lmp_kokkos_cuda_mpi(main+0x60)[0x1086af40]
[r231n04:38473] [17] /lib64/power9/libc.so.6(+0x241f8)[0x20000bb441f8]
[r231n04:38473] [18] /lib64/power9/libc.so.6(__libc_start_main+0xb4)[0x20000bb443e4]
[r231n04:38473] *** End of error message ***
lmp_kokkos_cuda_mpi(main+0x60)[0x1086af40]
[r231n02:57315] [17] /lib64/power9/libc.so.6(+0x241f8)[0x20000bb441f8]
[r231n02:57315] [18] /lib64/power9/libc.so.6(__libc_start_main+0xb4)[0x20000bb443e4]
[r231n02:57315] *** End of error message ***
lmp_kokkos_cuda_mpi(main+0x60)[0x1086af40]
[r231n03:17288] [17] /lib64/power9/libc.so.6(+0x241f8)[0x20000bb441f8]
[r231n03:17288] [18] /lib64/power9/libc.so.6(__libc_start_main+0xb4)[0x20000bb443e4]
[r231n03:17288] *** End of error message ***
lmp_kokkos_cuda_mpi(main+0x60)[0x1086af40]
[r231n04:38481] [17] /lib64/power9/libc.so.6(+0x241f8)[0x20000bb441f8]
[r231n04:38481] [18] /lib64/power9/libc.so.6(__libc_start_main+0xb4)[0x20000bb443e4]
[r231n04:38481] *** End of error message ***
lmp_kokkos_cuda_mpi(main+0x60)[0x1086af40]
[r231n02:57298] [17] /lib64/power9/libc.so.6(+0x241f8)[0x20000bb441f8]
[r231n02:57298] [18] /lib64/power9/libc.so.6(__libc_start_main+0xb4)[0x20000bb443e4]
[r231n02:57298] *** End of error message ***
lmp_kokkos_cuda_mpi(main+0x60)[0x1086af40]
[r231n03:17275] [17] /lib64/power9/libc.so.6(+0x241f8)[0x20000bb441f8]
[r231n03:17275] [18] /lib64/power9/libc.so.6(__libc_start_main+0xb4)[0x20000bb443e4]
[r231n03:17275] *** End of error message ***
lmp_kokkos_cuda_mpi(main+0x60)[0x1086af40]
[r231n03:17293] [17] /lib64/power9/libc.so.6(+0x241f8)[0x20000bb441f8]
[r231n03:17293] [18] /lib64/power9/libc.so.6(__libc_start_main+0xb4)[0x20000bb443e4]
[r231n03:17293] *** End of error message ***
--------------------------------------------------------------------------
Primary job  terminated normally, but 1 process returned
a non-zero exit code. Per user-direction, the job has been aborted.
--------------------------------------------------------------------------
--------------------------------------------------------------------------
mpirun noticed that process rank 6 with PID 0 on node r231n01 exited on signal 6 (Aborted).
--------------------------------------------------------------------------
3 total processes killed (some possibly by mpirun during cleanup)
