LAMMPS (29 Sep 2021 - Update 1)
KOKKOS mode is enabled (../kokkos.cpp:97)
  will use up to 4 GPU(s) per node
  using 1 OpenMP thread(s) per MPI task
Reading data file ...
  orthogonal box = (0.0000000 0.0000000 0.0000000) to (4143.0751 57.106480 57.106480)
  128 by 1 by 1 MPI processor grid
  reading atoms ...
  360800 atoms
  read_data CPU = 14.077 seconds
800 atoms in group source
800 atoms in group detector
400 atoms in group edge
400 atoms in group edge_buf
120000 atoms in group buffer
WARNING: Using 'neigh_modify every 1 delay 0 check yes' setting during minimization (../min.cpp:188)
Neighbor list info ...
  update every 1 steps, delay 0 steps, check yes
  max neighbors/atom: 2000, page size: 100000
  master list distance cutoff = 7.6
  ghost atom cutoff = 7.6
  binsize = 7.6, bins = 546 8 8
  1 neighbor lists, perpetual/occasional/extra = 1 0 0
  (1) pair eam/alloy/kk, perpetual
      attributes: full, newton off, kokkos_device
      pair build: full/bin/kk/device
      stencil: full/bin/3d
      bin: kk/device
Setting up cg/kk style minimization ...
  Unit style    : metal
  Current step  : 0
WARNING: Fixes cannot yet send exchange data in Kokkos communication, switching to classic exchange/border communication (../comm_kokkos.cpp:581)
Per MPI rank memory allocation (min/avg/max) = 1.617 | 2.946 | 6.026 Mbytes
Step Temp E_pair E_mol TotEng Press 
       0            0   -1486645.8            0   -1486645.8   -52.715618 
       1            0   -1486647.7            0   -1486647.7   -61.793994 
       2            0   -1486647.7            0   -1486647.7   -63.764458 
       3            0   -1486647.8            0   -1486647.8    -63.02437 
       4            0   -1486647.8            0   -1486647.8   -63.454331 
       5            0   -1486647.8            0   -1486647.8    -64.06893 
       6            0   -1486647.8            0   -1486647.8   -64.285878 
       7            0   -1486647.8            0   -1486647.8   -64.391331 
       8            0   -1486647.8            0   -1486647.8   -64.478639 
       9            0   -1486647.8            0   -1486647.8   -64.590014 
      10            0   -1486647.8            0   -1486647.8   -64.652976 
      11            0   -1486647.8            0   -1486647.8   -64.696455 
      12            0   -1486647.8            0   -1486647.8   -64.735149 
      13            0   -1486647.8            0   -1486647.8   -64.779435 
      14            0   -1486647.8            0   -1486647.8   -64.810247 
      15            0   -1486647.8            0   -1486647.8    -64.83294 
      16            0   -1486647.8            0   -1486647.8   -64.855047 
      17            0   -1486647.8            0   -1486647.8   -64.878675 
      18            0   -1486647.8            0   -1486647.8     -64.8967 
      19            0   -1486647.8            0   -1486647.8   -64.910887 
      20            0   -1486647.8            0   -1486647.8   -64.925182 
      21            0   -1486647.8            0   -1486647.8   -64.939866 
      22            0   -1486647.8            0   -1486647.8   -64.951714 
      23            0   -1486647.8            0   -1486647.8   -64.961118 
      24            0   -1486647.8            0   -1486647.8   -64.968966 
      25            0   -1486647.8            0   -1486647.8   -64.977162 
      26            0   -1486647.8            0   -1486647.8   -64.985799 
      27            0   -1486647.8            0   -1486647.8   -64.993594 
      28            0   -1486647.8            0   -1486647.8   -64.999615 
      29            0   -1486647.8            0   -1486647.8   -65.005236 
      30            0   -1486647.8            0   -1486647.8    -65.01196 
      31            0   -1486647.8            0   -1486647.8   -65.018118 
      32            0   -1486647.8            0   -1486647.8   -65.022951 
      33            0   -1486647.8            0   -1486647.8   -65.027081 
      34            0   -1486647.8            0   -1486647.8    -65.03251 
      35            0   -1486647.8            0   -1486647.8   -65.037463 
      36            0   -1486647.8            0   -1486647.8   -65.041324 
      37            0   -1486647.8            0   -1486647.8    -65.04505 
      38            0   -1486647.8            0   -1486647.8   -65.049169 
      39            0   -1486647.8            0   -1486647.8   -65.053148 
      40            0   -1486647.8            0   -1486647.8   -65.056437 
      41            0   -1486647.8            0   -1486647.8   -65.060009 
      42            0   -1486647.8            0   -1486647.8    -65.06319 
      43            0   -1486647.8            0   -1486647.8   -65.066111 
      44            0   -1486647.8            0   -1486647.8   -65.069354 
      45            0   -1486647.8            0   -1486647.8   -65.072471 
      46            0   -1486647.8            0   -1486647.8   -65.075053 
      47            0   -1486647.8            0   -1486647.8   -65.077513 
      48            0   -1486647.8            0   -1486647.8   -65.080448 
      49            0   -1486647.8            0   -1486647.8    -65.08304 
      50            0   -1486647.8            0   -1486647.8   -65.085335 
      51            0   -1486647.8            0   -1486647.8    -65.08775 
      52            0   -1486647.8            0   -1486647.8   -65.090023 
      53            0   -1486647.8            0   -1486647.8   -65.092214 
      54            0   -1486647.8            0   -1486647.8   -65.094486 
      55            0   -1486647.8            0   -1486647.8   -65.096661 
      56            0   -1486647.8            0   -1486647.8   -65.098478 
      57            0   -1486647.8            0   -1486647.8   -65.100444 
      58            0   -1486647.8            0   -1486647.8   -65.102598 
      59            0   -1486647.8            0   -1486647.8   -65.104414 
      60            0   -1486647.8            0   -1486647.8   -65.106212 
      61            0   -1486647.8            0   -1486647.8   -65.108003 
      62            0   -1486647.8            0   -1486647.8   -65.109714 
      63            0   -1486647.8            0   -1486647.8   -65.111416 
      64            0   -1486647.8            0   -1486647.8   -65.113172 
      65            0   -1486647.8            0   -1486647.8   -65.114745 
      66            0   -1486647.8            0   -1486647.8   -65.116181 
      67            0   -1486647.8            0   -1486647.8   -65.117847 
      68            0   -1486647.8            0   -1486647.8   -65.119404 
      69            0   -1486647.8            0   -1486647.8   -65.120829 
      70            0   -1486647.8            0   -1486647.8   -65.122308 
      71            0   -1486647.8            0   -1486647.8   -65.123697 
      72            0   -1486647.8            0   -1486647.8   -65.125086 
      73            0   -1486647.8            0   -1486647.8   -65.126535 
      74            0   -1486647.8            0   -1486647.8   -65.127895 
      75            0   -1486647.8            0   -1486647.8   -65.129122 
      76            0   -1486647.8            0   -1486647.8   -65.130449 
      77            0   -1486647.8            0   -1486647.8   -65.131811 
      78            0   -1486647.8            0   -1486647.8   -65.133007 
      79            0   -1486647.8            0   -1486647.8   -65.134258 
      80            0   -1486647.8            0   -1486647.8   -65.135448 
      81            0   -1486647.8            0   -1486647.8    -65.13659 
      82            0   -1486647.8            0   -1486647.8    -65.13784 
      83            0   -1486647.8            0   -1486647.8   -65.139041 
      84            0   -1486647.8            0   -1486647.8   -65.140125 
      85            0   -1486647.8            0   -1486647.8   -65.141214 
      86            0   -1486647.8            0   -1486647.8   -65.142371 
      87            0   -1486647.8            0   -1486647.8   -65.143448 
      88            0   -1486647.8            0   -1486647.8   -65.144539 
      89            0   -1486647.8            0   -1486647.8    -65.14561 
      90            0   -1486647.8            0   -1486647.8    -65.14659 
      91            0   -1486647.8            0   -1486647.8   -65.147666 
      92            0   -1486647.8            0   -1486647.8    -65.14873 
      93            0   -1486647.8            0   -1486647.8   -65.149705 
      94            0   -1486647.8            0   -1486647.8   -65.150695 
      95            0   -1486647.8            0   -1486647.8   -65.151691 
      96            0   -1486647.8            0   -1486647.8   -65.152662 
      97            0   -1486647.8            0   -1486647.8   -65.153642 
      98            0   -1486647.8            0   -1486647.8   -65.154616 
      99            0   -1486647.8            0   -1486647.8   -65.155503 
     100            0   -1486647.8            0   -1486647.8   -65.156438 
     101            0   -1486647.8            0   -1486647.8    -65.15741 
     102            0   -1486647.8            0   -1486647.8   -65.158304 
     103            0   -1486647.8            0   -1486647.8   -65.159224 
     104            0   -1486647.8            0   -1486647.8   -65.160112 
     105            0   -1486647.8            0   -1486647.8   -65.160974 
     106            0   -1486647.8            0   -1486647.8    -65.16189 
     107            0   -1486647.8            0   -1486647.8   -65.162787 
     108            0   -1486647.8            0   -1486647.8   -65.163619 
     109            0   -1486647.8            0   -1486647.8   -65.164464 
     110            0   -1486647.8            0   -1486647.8   -65.165354 
     111            0   -1486647.8            0   -1486647.8   -65.166189 
     112            0   -1486647.8            0   -1486647.8   -65.167038 
     113            0   -1486647.8            0   -1486647.8   -65.167874 
     114            0   -1486647.8            0   -1486647.8   -65.168659 
     115            0   -1486647.8            0   -1486647.8   -65.169507 
     116            0   -1486647.8            0   -1486647.8   -65.170337 
     117            0   -1486647.8            0   -1486647.8   -65.171122 
     118            0   -1486647.8            0   -1486647.8   -65.171924 
     119            0   -1486647.8            0   -1486647.8   -65.172728 
     120            0   -1486647.8            0   -1486647.8   -65.173523 
     121            0   -1486647.8            0   -1486647.8   -65.174331 
     122            0   -1486647.8            0   -1486647.8   -65.175125 
     123            0   -1486647.8            0   -1486647.8   -65.175865 
     124            0   -1486647.8            0   -1486647.8   -65.176654 
     125            0   -1486647.8            0   -1486647.8   -65.177451 
     126            0   -1486647.8            0   -1486647.8   -65.178194 
     127            0   -1486647.8            0   -1486647.8   -65.178963 
     128            0   -1486647.8            0   -1486647.8   -65.179709 
     129            0   -1486647.8            0   -1486647.8   -65.180459 
     130            0   -1486647.8            0   -1486647.8   -65.181237 
     131            0   -1486647.8            0   -1486647.8   -65.181984 
     132            0   -1486647.8            0   -1486647.8   -65.182709 
     133            0   -1486647.8            0   -1486647.8   -65.183452 
     134            0   -1486647.8            0   -1486647.8   -65.184201 
     135            0   -1486647.8            0   -1486647.8   -65.184929 
     136            0   -1486647.8            0   -1486647.8   -65.185675 
     137            0   -1486647.8            0   -1486647.8   -65.186388 
     138            0   -1486647.8            0   -1486647.8   -65.187093 
     139            0   -1486647.8            0   -1486647.8   -65.187848 
     140            0   -1486647.8            0   -1486647.8   -65.188564 
     141            0   -1486647.8            0   -1486647.8   -65.189276 
     142            0   -1486647.8            0   -1486647.8   -65.189999 
     143            0   -1486647.8            0   -1486647.8   -65.190701 
     144            0   -1486647.8            0   -1486647.8   -65.191418 
     145            0   -1486647.8            0   -1486647.8   -65.192145 
     146            0   -1486647.8            0   -1486647.8   -65.192842 
     147            0   -1486647.8            0   -1486647.8   -65.193527 
     148            0   -1486647.8            0   -1486647.8   -65.194247 
     149            0   -1486647.8            0   -1486647.8   -65.194947 
     150            0   -1486647.8            0   -1486647.8   -65.195644 
     151            0   -1486647.8            0   -1486647.8   -65.196356 
     152            0   -1486647.8            0   -1486647.8   -65.197029 
     153            0   -1486647.8            0   -1486647.8   -65.197732 
     154            0   -1486647.8            0   -1486647.8   -65.198447 
     155            0   -1486647.8            0   -1486647.8   -65.199122 
     156            0   -1486647.8            0   -1486647.8   -65.199807 
     157            0   -1486647.8            0   -1486647.8   -65.200501 
     158            0   -1486647.8            0   -1486647.8   -65.201186 
     159            0   -1486647.8            0   -1486647.8   -65.201876 
     160            0   -1486647.8            0   -1486647.8    -65.20257 
     161            0   -1486647.8            0   -1486647.8   -65.203232 
     162            0   -1486647.8            0   -1486647.8   -65.203912 
     163            0   -1486647.8            0   -1486647.8   -65.204614 
     164            0   -1486647.8            0   -1486647.8   -65.205283 
     165            0   -1486647.8            0   -1486647.8   -65.205968 
     166            0   -1486647.8            0   -1486647.8   -65.206642 
     167            0   -1486647.8            0   -1486647.8   -65.207308 
     168            0   -1486647.8            0   -1486647.8   -65.208005 
     169            0   -1486647.8            0   -1486647.8   -65.208684 
     170            0   -1486647.8            0   -1486647.8   -65.209347 
     171            0   -1486647.8            0   -1486647.8   -65.210022 
     172            0   -1486647.8            0   -1486647.8   -65.210701 
     173            0   -1486647.8            0   -1486647.8    -65.21137 
     174            0   -1486647.8            0   -1486647.8   -65.212053 
     175            0   -1486647.8            0   -1486647.8   -65.212723 
     176            0   -1486647.8            0   -1486647.8   -65.213375 
     177            0   -1486647.8            0   -1486647.8   -65.214063 
     178            0   -1486647.8            0   -1486647.8   -65.214733 
     179            0   -1486647.8            0   -1486647.8   -65.215396 
     180            0   -1486647.8            0   -1486647.8   -65.216071 
     181            0   -1486647.8            0   -1486647.8   -65.216725 
     182            0   -1486647.8            0   -1486647.8     -65.2174 
     183            0   -1486647.8            0   -1486647.8   -65.218082 
     184            0   -1486647.8            0   -1486647.8   -65.218744 
     185            0   -1486647.8            0   -1486647.8   -65.219403 
     186            0   -1486647.8            0   -1486647.8   -65.220077 
     187            0   -1486647.8            0   -1486647.8   -65.220744 
     188            0   -1486647.8            0   -1486647.8   -65.221411 
     189            0   -1486647.8            0   -1486647.8   -65.222087 
     190            0   -1486647.8            0   -1486647.8   -65.222735 
     191            0   -1486647.8            0   -1486647.8   -65.223404 
     192            0   -1486647.8            0   -1486647.8   -65.224084 
     193            0   -1486647.8            0   -1486647.8   -65.224738 
     194            0   -1486647.8            0   -1486647.8   -65.225411 
     195            0   -1486647.8            0   -1486647.8   -65.226076 
     196            0   -1486647.8            0   -1486647.8   -65.226735 
     197            0   -1486647.8            0   -1486647.8   -65.227412 
     198            0   -1486647.8            0   -1486647.8   -65.228082 
     199            0   -1486647.8            0   -1486647.8   -65.228739 
     200            0   -1486647.8            0   -1486647.8   -65.229407 
     201            0   -1486647.8            0   -1486647.8   -65.230082 
     202            0   -1486647.8            0   -1486647.8   -65.230741 
     203            0   -1486647.8            0   -1486647.8   -65.231416 
     204            0   -1486647.8            0   -1486647.8   -65.232077 
     205            0   -1486647.8            0   -1486647.8   -65.232729 
     206            0   -1486647.8            0   -1486647.8   -65.233413 
     207            0   -1486647.8            0   -1486647.8   -65.234076 
     208            0   -1486647.8            0   -1486647.8   -65.234738 
     209            0   -1486647.8            0   -1486647.8    -65.23541 
     210            0   -1486647.8            0   -1486647.8   -65.236069 
     211            0   -1486647.8            0   -1486647.8   -65.236742 
     212            0   -1486647.8            0   -1486647.8    -65.23742 
     213            0   -1486647.8            0   -1486647.8   -65.238082 
     214            0   -1486647.8            0   -1486647.8   -65.238741 
     215            0   -1486647.8            0   -1486647.8    -65.23942 
     216            0   -1486647.8            0   -1486647.8   -65.240088 
     217            0   -1486647.8            0   -1486647.8   -65.240755 
     218            0   -1486647.8            0   -1486647.8   -65.241431 
     219            0   -1486647.8            0   -1486647.8   -65.242084 
     220            0   -1486647.8            0   -1486647.8    -65.24276 
     221            0   -1486647.8            0   -1486647.8   -65.243441 
     222            0   -1486647.8            0   -1486647.8   -65.244103 
     223            0   -1486647.8            0   -1486647.8   -65.244775 
     224            0   -1486647.8            0   -1486647.8   -65.245443 
     225            0   -1486647.8            0   -1486647.8   -65.246113 
     226            0   -1486647.8            0   -1486647.8   -65.246792 
     227            0   -1486647.8            0   -1486647.8   -65.247466 
     228            0   -1486647.8            0   -1486647.8   -65.248126 
     229            0   -1486647.8            0   -1486647.8     -65.2488 
     230            0   -1486647.8            0   -1486647.8   -65.249479 
     231            0   -1486647.8            0   -1486647.8   -65.250148 
     232            0   -1486647.8            0   -1486647.8   -65.250831 
     233            0   -1486647.8            0   -1486647.8   -65.251495 
     234            0   -1486647.8            0   -1486647.8   -65.252163 
     235            0   -1486647.8            0   -1486647.8   -65.252853 
     236            0   -1486647.8            0   -1486647.8   -65.253523 
     237            0   -1486647.8            0   -1486647.8   -65.254197 
     238            0   -1486647.8            0   -1486647.8   -65.254874 
     239            0   -1486647.8            0   -1486647.8   -65.255546 
     240            0   -1486647.8            0   -1486647.8   -65.256226 
     241            0   -1486647.8            0   -1486647.8   -65.256911 
     242            0   -1486647.8            0   -1486647.8   -65.257581 
     243            0   -1486647.8            0   -1486647.8   -65.258252 
     244            0   -1486647.8            0   -1486647.8   -65.258942 
     245            0   -1486647.8            0   -1486647.8   -65.259616 
     246            0   -1486647.8            0   -1486647.8   -65.260298 
     247            0   -1486647.8            0   -1486647.8   -65.260979 
     248            0   -1486647.8            0   -1486647.8   -65.261646 
     249            0   -1486647.8            0   -1486647.8   -65.262337 
     250            0   -1486647.8            0   -1486647.8    -65.26302 
     251            0   -1486647.8            0   -1486647.8   -65.263694 
     252            0   -1486647.8            0   -1486647.8   -65.264378 
     253            0   -1486647.8            0   -1486647.8   -65.265057 
     254            0   -1486647.8            0   -1486647.8   -65.265739 
     255            0   -1486647.8            0   -1486647.8   -65.266428 
     256            0   -1486647.8            0   -1486647.8   -65.267108 
     257            0   -1486647.8            0   -1486647.8    -65.26778 
     258            0   -1486647.8            0   -1486647.8   -65.268472 
     259            0   -1486647.8            0   -1486647.8    -65.26916 
     260            0   -1486647.8            0   -1486647.8   -65.269841 
     261            0   -1486647.8            0   -1486647.8   -65.270535 
     262            0   -1486647.8            0   -1486647.8   -65.271209 
     263            0   -1486647.8            0   -1486647.8   -65.271896 
     264            0   -1486647.8            0   -1486647.8   -65.272593 
     265            0   -1486647.8            0   -1486647.8   -65.273272 
     266            0   -1486647.8            0   -1486647.8    -65.27396 
     267            0   -1486647.8            0   -1486647.8   -65.274648 
     268            0   -1486647.8            0   -1486647.8   -65.275334 
     269            0   -1486647.8            0   -1486647.8   -65.276026 
     270            0   -1486647.8            0   -1486647.8   -65.276719 
     271            0   -1486647.8            0   -1486647.8   -65.277398 
     272            0   -1486647.8            0   -1486647.8   -65.278086 
     273            0   -1486647.8            0   -1486647.8   -65.278784 
     274            0   -1486647.8            0   -1486647.8   -65.279466 
     275            0   -1486647.8            0   -1486647.8   -65.280164 
     276            0   -1486647.8            0   -1486647.8   -65.280853 
     277            0   -1486647.8            0   -1486647.8   -65.281536 
     278            0   -1486647.8            0   -1486647.8   -65.282241 
     279            0   -1486647.8            0   -1486647.8   -65.282932 
     280            0   -1486647.8            0   -1486647.8   -65.283622 
     281            0   -1486647.8            0   -1486647.8   -65.284317 
     282            0   -1486647.8            0   -1486647.8   -65.285007 
     283            0   -1486647.8            0   -1486647.8   -65.285703 
     284            0   -1486647.8            0   -1486647.8   -65.286405 
     285            0   -1486647.8            0   -1486647.8   -65.287096 
     286            0   -1486647.8            0   -1486647.8   -65.287783 
     287            0   -1486647.8            0   -1486647.8   -65.288489 
     288            0   -1486647.8            0   -1486647.8   -65.289183 
     289            0   -1486647.8            0   -1486647.8   -65.289879 
     290            0   -1486647.8            0   -1486647.8    -65.29058 
     291            0   -1486647.8            0   -1486647.8   -65.291264 
     292            0   -1486647.8            0   -1486647.8   -65.291968 
     293            0   -1486647.8            0   -1486647.8   -65.292674 
     294            0   -1486647.8            0   -1486647.8   -65.293366 
     295            0   -1486647.8            0   -1486647.8   -65.294064 
     296            0   -1486647.8            0   -1486647.8   -65.294761 
     297            0   -1486647.8            0   -1486647.8    -65.29546 
     298            0   -1486647.8            0   -1486647.8   -65.296166 
     299            0   -1486647.8            0   -1486647.8   -65.296869 
     300            0   -1486647.8            0   -1486647.8   -65.297559 
     301            0   -1486647.8            0   -1486647.8   -65.298263 
     302            0   -1486647.8            0   -1486647.8   -65.298968 
     303            0   -1486647.8            0   -1486647.8   -65.299665 
     304            0   -1486647.8            0   -1486647.8   -65.300373 
     305            0   -1486647.8            0   -1486647.8   -65.301066 
     306            0   -1486647.8            0   -1486647.8   -65.301767 
     307            0   -1486647.8            0   -1486647.8   -65.302482 
     308            0   -1486647.8            0   -1486647.8   -65.303181 
     309            0   -1486647.8            0   -1486647.8   -65.303884 
     310            0   -1486647.8            0   -1486647.8   -65.304589 
     311            0   -1486647.8            0   -1486647.8    -65.30529 
     312            0   -1486647.8            0   -1486647.8   -65.305998 
     313            0   -1486647.8            0   -1486647.8   -65.306709 
     314            0   -1486647.8            0   -1486647.8   -65.307407 
     315            0   -1486647.8            0   -1486647.8   -65.308108 
     316            0   -1486647.8            0   -1486647.8   -65.308821 
     317            0   -1486647.8            0   -1486647.8   -65.309523 
     318            0   -1486647.8            0   -1486647.8   -65.310235 
     319            0   -1486647.8            0   -1486647.8   -65.310941 
     320            0   -1486647.8            0   -1486647.8   -65.311639 
     321            0   -1486647.8            0   -1486647.8   -65.312357 
     322            0   -1486647.8            0   -1486647.8   -65.313064 
     323            0   -1486647.8            0   -1486647.8   -65.313768 
     324            0   -1486647.8            0   -1486647.8   -65.314478 
     325            0   -1486647.8            0   -1486647.8   -65.315184 
     326            0   -1486647.8            0   -1486647.8   -65.315895 
     327            0   -1486647.8            0   -1486647.8   -65.316609 
     328            0   -1486647.8            0   -1486647.8   -65.317316 
     329            0   -1486647.8            0   -1486647.8   -65.318019 
     330            0   -1486647.8            0   -1486647.8   -65.318737 
     331            0   -1486647.8            0   -1486647.8   -65.319447 
     332            0   -1486647.8            0   -1486647.8   -65.320156 
     333            0   -1486647.8            0   -1486647.8   -65.320872 
     334            0   -1486647.8            0   -1486647.8   -65.321574 
     335            0   -1486647.8            0   -1486647.8   -65.322291 
     336            0   -1486647.8            0   -1486647.8   -65.323009 
     337            0   -1486647.8            0   -1486647.8   -65.323714 
     338            0   -1486647.8            0   -1486647.8   -65.324426 
     339            0   -1486647.8            0   -1486647.8   -65.325137 
     340            0   -1486647.8            0   -1486647.8   -65.325849 
     341            0   -1486647.8            0   -1486647.8   -65.326569 
     342            0   -1486647.8            0   -1486647.8   -65.327283 
     343            0   -1486647.8            0   -1486647.8   -65.327988 
     344            0   -1486647.8            0   -1486647.8   -65.328705 
     345            0   -1486647.8            0   -1486647.8   -65.329423 
     346            0   -1486647.8            0   -1486647.8   -65.330133 
     347            0   -1486647.8            0   -1486647.8   -65.330851 
     348            0   -1486647.8            0   -1486647.8   -65.331554 
     349            0   -1486647.8            0   -1486647.8   -65.332252 
     350            0   -1486647.8            0   -1486647.8   -65.332939 
     351            0   -1486647.8            0   -1486647.8   -65.333571 
     352            0   -1486647.8            0   -1486647.8   -65.334136 
     353            0   -1486647.8            0   -1486647.8   -65.334596 
     354            0   -1486647.8            0   -1486647.8   -65.334932 
     355            0   -1486647.8            0   -1486647.8   -65.335159 
     356            0   -1486647.8            0   -1486647.8   -65.335301 
     357            0   -1486647.8            0   -1486647.8   -65.335397 
Loop time of 12.9067 on 128 procs for 357 steps with 360800 atoms

92.1% CPU use with 128 MPI tasks x 1 OpenMP threads

Minimization stats:
  Stopping criterion = energy tolerance
  Energy initial, next-to-last, final = 
     -1486645.77951318  -1486647.82549146  -1486647.82549146
  Force two-norm initial, final = 7.1080974 5.2084043e-05
  Force max component initial, final = 0.19826945 3.8813877e-07
  Final line search alpha, max atom move = 1.0000000 3.8813877e-07
  Iterations, force evaluations = 357 714

MPI task timing breakdown:
Section |  min time  |  avg time  |  max time  |%varavg| %total
---------------------------------------------------------------
Pair    | 0.65345    | 2.6412     | 6.9424     | 154.6 | 20.46
Neigh   | 0          | 0          | 0          |   0.0 |  0.00
Comm    | 0.050938   | 0.72514    | 2.3341     | 112.7 |  5.62
Output  | 0.65254    | 0.76444    | 0.83706    |   6.0 |  5.92
Modify  | 0          | 0          | 0          |   0.0 |  0.00
Other   |            | 8.776      |            |       | 68.00

Nlocal:        2818.75 ave        9200 max           0 min
Histogram: 88 0 0 0 0 0 0 0 1 39
Nghost:        3899.30 ave       13317 max           0 min
Histogram: 87 1 0 0 0 0 2 0 0 38
Neighs:         0.00000 ave           0 max           0 min
Histogram: 128 0 0 0 0 0 0 0 0 0
FullNghs:      472488.0 ave  1.5456e+06 max           0 min
Histogram: 88 0 0 0 0 0 0 1 0 39

Total # of neighbors = 60478400
Ave neighs/atom = 167.62306
Neighbor list builds = 0
Dangerous builds = 0
WARNING: One or more atoms are time integrated more than once (../modify.cpp:281)
Setting up Verlet run ...
  Unit style    : metal
  Current step  : 357
  Time step     : 0.0005
0 1431.22883112511 1859.52975400699 2288.54218719862 0 2.71914088274188e-05 0 13511189.6808912 -1486647.82549146 -65.3353965730976
Per MPI rank memory allocation (min/avg/max) = 1.475 | 2.553 | 5.050 Mbytes
Step Temp E_pair E_mol TotEng Press 
     357            0   -1486647.8            0   -1486647.8   -65.335397 
0.0005 1431.22885154546 1859.52975400699 2288.54218719862 2.93556933238524e-09 2.7179337192998e-05 1.98515345886479e-05 13511189.6808912 -1486647.82456513 -65.3264892773361
     358 1.9851535e-05   -1486647.8            0   -1486647.8   -65.326489 
0.001 1431.22887196576 1859.52975400699 2288.54218719862 5.86853305827222e-09 2.7143149442916e-05 1.98460547700014e-05 13511189.6808912 -1486647.82456384 -65.3176553473668
     359 1.9846055e-05   -1486647.8            0   -1486647.8   -65.317655 
0.0015 1431.22889238599 1859.529754007 2288.54218719862 8.79628839543264e-09 2.70828707333223e-05 1.98405501879944e-05 13511189.6808912 -1486647.82456153 -65.3088216042574
     360 1.984055e-05   -1486647.8            0   -1486647.8   -65.308822 
0.002 1431.2289128061 1859.529754007 2288.54218719861 1.17162355707095e-08 2.69985316401701e-05 1.98350523413135e-05 13511189.6808912 -1486647.82455818 -65.2999880782859
     361 1.9835052e-05   -1486647.8            0   -1486647.8   -65.299988 
0.0025 1431.22893322604 1859.52975400701 2288.5421871986 1.4625778608172e-08 2.68901719173119e-05 1.98296048367952e-05 13511189.6808912 -1486647.82455381 -65.2911547999887
     362 1.9829605e-05   -1486647.8            0   -1486647.8   -65.291155 
0.003 1431.22895364579 1859.52975400702 2288.54218719859 1.75223267111238e-08 2.67578477373801e-05 1.98242633103172e-05 13511189.6808912 -1486647.82454841 -65.2823217994329
     363 1.9824263e-05   -1486647.8            0   -1486647.8   -65.282322 
0.0035 1431.2289740653 1859.52975400702 2288.54218719858 2.04032946878527e-08 2.66016067396854e-05 1.98190953266148e-05 13511189.6808912 -1486647.82454199 -65.2734891067249
     364 1.9819095e-05   -1486647.8            0   -1486647.8   -65.273489 
0.004 1431.22899448453 1859.52975400704 2288.54218719857 2.32661054296611e-08 2.64215509933717e-05 1.98141802569841e-05 13511189.6808912 -1486647.82453455 -65.2646567515969
     365 1.981418e-05   -1486647.8            0   -1486647.8   -65.264657 
0.0045 1431.22901490345 1859.52975400705 2288.54218719855 2.61081922871719e-08 2.62177721501659e-05 1.98096091360306e-05 13511189.6808912 -1486647.82452608 -65.2558247637098
     366 1.9809609e-05   -1486647.8            0   -1486647.8   -65.255825 
0.005 1431.229035322 1859.52975400706 2288.54218719853 2.89269984822956e-08 2.59903613880458e-05 1.98054844971541e-05 13511189.6808912 -1486647.82451659 -65.2469931726407
     367 1.9805484e-05   -1486647.8            0   -1486647.8   -65.246993 
0.0055 1431.22905574016 1859.52975400708 2288.54218719851 3.17199779904896e-08 2.5739426699384e-05 1.98019201870731e-05 13511189.6808912 -1486647.82450609 -65.2381620076017
     368 1.980192e-05   -1486647.8            0   -1486647.8   -65.238162 
0.006 1431.22907615788 1859.52975400709 2288.5421871985 3.44845995839089e-08 2.5465134146816e-05 1.97990411603281e-05 13511189.6808912 -1486647.82449457 -65.2293312977945
     369 1.9799041e-05   -1486647.8            0   -1486647.8   -65.229331 
0.0065 1431.22909657512 1859.52975400711 2288.54218719847 3.72183457426497e-08 2.51675715574681e-05 1.97969832533217e-05 13511189.6808912 -1486647.82448203 -65.220501072168
     370 1.9796983e-05   -1486647.8            0   -1486647.8   -65.220501 
0.007 1431.22911699184 1859.52975400713 2288.54218719845 3.99187131295563e-08 2.48469137880437e-05 1.97958929389221e-05 13511189.6808912 -1486647.82446848 -65.2116713593753
     371 1.9795893e-05   -1486647.8            0   -1486647.8   -65.211671 
0.0075 1431.22913740801 1859.52975400715 2288.54218719842 4.25832180099514e-08 2.45033490464607e-05 1.97959270620628e-05 13511189.6808912 -1486647.82445393 -65.2028421880703
     372 1.9795927e-05   -1486647.8            0   -1486647.8   -65.202842 
0.008 1431.22915782358 1859.52975400717 2288.5421871984 4.52093953545242e-08 2.41370355736914e-05 1.97972525562684e-05 13511189.6808912 -1486647.82443836 -65.1940135865231
     373 1.9797253e-05   -1486647.8            0   -1486647.8   -65.194014 
0.0085 1431.22917823851 1859.5297540072 2288.54218719837 4.77947979488089e-08 2.37481450839787e-05 1.98000461425653e-05 13511189.6808912 -1486647.8244218 -65.1851855831061
     374 1.9800046e-05   -1486647.8            0   -1486647.8   -65.185186 
0.009 1431.22919865276 1859.52975400722 2288.54218719834 5.03369976903247e-08 2.33368598430924e-05 1.98044940101071e-05 13511189.6808912 -1486647.82440423 -65.1763582056011
     375 1.9804494e-05   -1486647.8            0   -1486647.8   -65.176358 
0.0095 1431.2292190663 1859.52975400725 2288.54218719831 5.283359034882e-08 2.29034397315022e-05 1.98107914805916e-05 13511189.6808912 -1486647.82438567 -65.1675314817965
     376 1.9810791e-05   -1486647.8            0   -1486647.8   -65.167531 
0.01 1431.22923947909 1859.52975400727 2288.54218719827 5.52821966649208e-08 2.24480873634265e-05 1.98191426556536e-05 13511189.6808912 -1486647.82436611 -65.1587054384466
     377 1.9819143e-05   -1486647.8            0   -1486647.8   -65.158705 
0.0105 1431.22925989107 1859.5297540073 2288.54218719824 5.76804604213644e-08 2.19710268959578e-05 1.98297600487391e-05 13511189.6808912 -1486647.82434557 -65.1498801009332
     378 1.982976e-05   -1486647.8            0   -1486647.8    -65.14988 
0.011 1431.22928030223 1859.52975400733 2288.5421871982 6.00260497473585e-08 2.14724851018333e-05 1.98428642038907e-05 13511189.6808912 -1486647.82432404 -65.1410554996297
     379 1.9842864e-05   -1486647.8            0   -1486647.8   -65.141055 
0.0115 1431.2293007125 1859.52975400736 2288.54218719816 6.23166586041089e-08 2.09527136521319e-05 1.9858683295559e-05 13511189.6808912 -1486647.82430152 -65.1322316600391
     380 1.9858683e-05   -1486647.8            0   -1486647.8   -65.132232 
0.012 1431.22932112186 1859.52975400739 2288.54218719812 6.45500112192626e-08 2.04120214515323e-05 1.98774527195606e-05 13511189.6808912 -1486647.82427803 -65.1234086090792
     381 1.9877453e-05   -1486647.8            0   -1486647.8   -65.123409 
0.0125 1431.22934153027 1859.52975400743 2288.54218719808 6.67238614604521e-08 1.98506485682918e-05 1.98994146686988e-05 13511189.6808912 -1486647.82425357 -65.1145863731728
     382 1.9899415e-05   -1486647.8            0   -1486647.8   -65.114586 
0.013 1431.22936193768 1859.52975400746 2288.54218719804 6.88359928668318e-08 1.92689044911817e-05 1.99248176973546e-05 13511189.6808912 -1486647.82422814 -65.1057649787745
     383 1.9924818e-05   -1486647.8            0   -1486647.8   -65.105765 
0.0135 1431.22938234406 1859.5297540075 2288.542187198 7.08842200150075e-08 1.866705458736e-05 1.99539162743953e-05 13511189.6808912 -1486647.82420175 -65.0969444520493
     384 1.9953916e-05   -1486647.8            0   -1486647.8   -65.096944 
0.014 1431.22940274936 1859.52975400753 2288.54218719796 7.28663892991489e-08 1.80454227943121e-05 1.9986970325857e-05 13511189.6808912 -1486647.8241744 -65.0881248190189
     385 1.998697e-05   -1486647.8            0   -1486647.8   -65.088125 
0.0145 1431.22942315355 1859.52975400757 2288.54218719791 7.47803804647277e-08 1.74043028861423e-05 2.00242447680851e-05 13511189.6808912 -1486647.8241461 -65.0793061055946
     386 2.0024245e-05   -1486647.8            0   -1486647.8   -65.079306 
0.015 1431.22944355658 1859.52975400761 2288.54218719786 7.66241088145514e-08 1.67440596590717e-05 2.0066009031936e-05 13511189.6808912 -1486647.82411685 -65.07048833721
     387 2.0066009e-05   -1486647.8            0   -1486647.8   -65.070488 
0.0155 1431.22946395842 1859.52975400765 2288.54218719781 7.83955269623375e-08 1.60650193658056e-05 2.01125365797786e-05 13511189.6808912 -1486647.82408665 -65.061671539494
     388 2.0112537e-05   -1486647.8            0   -1486647.8   -65.061672 
0.016 1431.22948435903 1859.52975400769 2288.54218719777 8.00926238135001e-08 1.53675279253308e-05 2.01641044146941e-05 13511189.6808912 -1486647.82405553 -65.0528557374766
     389 2.0164104e-05   -1486647.8            0   -1486647.8   -65.052856 
0.0165 1431.22950475836 1859.52975400773 2288.54218719771 8.17134245836302e-08 1.4651911932639e-05 2.02209925845321e-05 13511189.6808912 -1486647.82402347 -65.0440409562997
     390 2.0220993e-05   -1486647.8            0   -1486647.8   -65.044041 
0.017 1431.22952515638 1859.52975400777 2288.54218719766 8.32559944655333e-08 1.39185852252502e-05 2.02834836801157e-05 13511189.6808912 -1486647.82399048 -65.0352272207225
     391 2.0283484e-05   -1486647.8            0   -1486647.8   -65.035227 
0.0175 1431.22954555305 1859.52975400781 2288.54218719761 8.47184388187256e-08 1.31678779078822e-05 2.03518623297761e-05 13511189.6808912 -1486647.82395658 -65.0264145554957
     392 2.0351862e-05   -1486647.8            0   -1486647.8   -65.026415 
0.018 1431.22956594832 1859.52975400785 2288.54218719756 8.60989032908408e-08 1.24002060666837e-05 2.04264146901325e-05 13511189.6808912 -1486647.82392176 -65.0176029849906
     393 2.0426415e-05   -1486647.8            0   -1486647.8   -65.017603 
0.0185 1431.22958634217 1859.5297540079 2288.5421871975 8.73955761837253e-08 1.1615943629668e-05 2.05074279348499e-05 13511189.6808912 -1486647.82388604 -65.0087925333458
     394 2.0507428e-05   -1486647.8            0   -1486647.8   -65.008793 
0.019 1431.22960673454 1859.52975400794 2288.54218719745 8.86066850162195e-08 1.08154430210161e-05 2.05951897419572e-05 13511189.6808912 -1486647.82384943 -64.9999832246152
     395 2.059519e-05   -1486647.8            0   -1486647.8   -64.999983 
0.0195 1431.2296271254 1859.52975400799 2288.54218719739 8.97305028991021e-08 9.99919624140087e-06 2.06899877805559e-05 13511189.6808912 -1486647.82381192 -64.9911750829175
     396 2.0689988e-05   -1486647.8            0   -1486647.8   -64.991175 
0.02 1431.2296475147 1859.52975400803 2288.54218719734 9.07653493243986e-08 9.1675703340672e-06 2.07921091976051e-05 13511189.6808912 -1486647.82377352 -64.9823681318805
     397 2.0792109e-05   -1486647.8            0   -1486647.8   -64.982368 
0.0205 1431.22966790242 1859.52975400807 2288.54218719728 9.17095859515631e-08 8.32097925403788e-06 2.0901840106649e-05 13511189.6808912 -1486647.82373425 -64.9735623950696
     398 2.090184e-05   -1486647.8            0   -1486647.8   -64.973562 
0.021 1431.22968828851 1859.52975400812 2288.54218719722 9.25616219687809e-08 7.4598893431808e-06 2.10194650784353e-05 13511189.6808912 -1486647.8236941 -64.9647578958498
     399 2.1019465e-05   -1486647.8            0   -1486647.8   -64.964758 
0.0215 1431.22970867292 1859.52975400817 2288.54218719716 9.33199154422853e-08 6.58473954771661e-06 2.11452666347539e-05 13511189.6808912 -1486647.82365309 -64.9559546573196
     400 2.1145267e-05   -1486647.8            0   -1486647.8   -64.955955 
0.022 1431.22972905563 1859.52975400821 2288.5421871971 9.39829709991695e-08 5.69595329202211e-06 2.12795247465274e-05 13511189.6808912 -1486647.82361123 -64.947152702613
     401 2.1279525e-05   -1486647.8            0   -1486647.8   -64.947153 
0.0225 1431.22974943658 1859.52975400826 2288.54218719704 9.45493408747718e-08 4.79398892132191e-06 2.14225163364029e-05 13511189.6808912 -1486647.82356851 -64.9383520542895
     402 2.1422516e-05   -1486647.8            0   -1486647.8   -64.938352 
0.023 1431.22976981575 1859.52975400831 2288.54218719698 9.50176258033198e-08 3.87928635593997e-06 2.15745147880376e-05 13511189.6808912 -1486647.82352496 -64.9295527353429
     403 2.1574515e-05   -1486647.8            0   -1486647.8   -64.929553 
0.0235 1431.22979019308 1859.52975400836 2288.54218719692 9.53864766116964e-08 2.95233345982421e-06 2.17357894608428e-05 13511189.6808912 -1486647.82348057 -64.9207547679725
     404 2.1735789e-05   -1486647.8            0   -1486647.8   -64.920755 
0.024 1431.22981056855 1859.5297540084 2288.54218719686 9.56545953704171e-08 2.01359147095181e-06 2.19066052136329e-05 13511189.6808912 -1486647.82343536 -64.9119581746272
     405 2.1906605e-05   -1486647.8            0   -1486647.8   -64.911958 
0.0245 1431.22983094211 1859.52975400845 2288.5421871968 9.58207364966899e-08 1.06356868345837e-06 2.20872219356235e-05 13511189.6808912 -1486647.82338934 -64.9031629773964
     406 2.2087222e-05   -1486647.8            0   -1486647.8   -64.903163 
0.025 1431.22985131372 1859.5297540085 2288.54218719674 9.58837047019959e-08 1.02688321712204e-07 2.22778940872175e-05 13511189.6808912 -1486647.8233425 -64.894369198211
     407 2.2277894e-05   -1486647.8            0   -1486647.8   -64.894369 
0.0255 1431.22987168334 1859.52975400855 2288.54218719668 9.58423570211679e-08 -8.68503738855525e-07 2.24788702507021e-05 13511189.6808912 -1486647.82329486 -64.8855768590303
     408 2.247887e-05   -1486647.8            0   -1486647.8   -64.885577 
0.026 1431.22989205093 1859.5297540086 2288.54218719662 9.56956054036097e-08 -1.84953628095083e-06 2.26903926913815e-05 13511189.6808912 -1486647.82324644 -64.87678598142
     409 2.2690393e-05   -1486647.8            0   -1486647.8   -64.876786 
0.0265 1431.22991241646 1859.52975400864 2288.54218719656 9.54424153113622e-08 -2.8398893948841e-06 2.29126969307946e-05 13511189.6808912 -1486647.82319723 -64.8679965868659
     410 2.2912697e-05   -1486647.8            0   -1486647.8   -64.867997 
0.027 1431.22993277988 1859.52975400869 2288.54218719649 9.50818051985229e-08 -3.83910150520578e-06 2.31460113319354e-05 13511189.6808912 -1486647.82314724 -64.8592086968947
     411 2.3146011e-05   -1486647.8            0   -1486647.8   -64.859209 
0.0275 1431.22995314115 1859.52975400874 2288.54218719643 9.46128476902475e-08 -4.84663086551803e-06 2.33905566971134e-05 13511189.6808912 -1486647.82309649 -64.8504223325667
     412 2.3390557e-05   -1486647.8            0   -1486647.8   -64.850422 
0.028 1431.22997350023 1859.52975400879 2288.54218719637 9.40346714210665e-08 -5.86198185225212e-06 2.36465458800052e-05 13511189.6808912 -1486647.82304499 -64.8416375150733
     413 2.3646546e-05   -1486647.8            0   -1486647.8   -64.841638 
0.0285 1431.22999385709 1859.52975400884 2288.54218719631 9.3346460005454e-08 -6.88463178545367e-06 2.39141834115963e-05 13511189.6808912 -1486647.82299274 -64.8328542652918
     414 2.3914183e-05   -1486647.8            0   -1486647.8   -64.832854 
0.029 1431.23001421169 1859.52975400888 2288.54218719625 9.25474537388488e-08 -7.91405353635473e-06 2.41936651412685e-05 13511189.6808912 -1486647.82293975 -64.8240726039352
     415 2.4193665e-05   -1486647.8            0   -1486647.8   -64.824073 
0.0295 1431.23003456397 1859.52975400893 2288.54218719619 9.16369505571038e-08 -8.94970665465841e-06 2.44851778933451e-05 13511189.6808912 -1486647.82288603 -64.8152925517702
     416 2.4485178e-05   -1486647.8            0   -1486647.8   -64.815293 
0.03 1431.23005491391 1859.52975400897 2288.54218719613 9.06143054626299e-08 -9.99107464022213e-06 2.47888991393182e-05 13511189.6808912 -1486647.82283159 -64.8065141290279
     417 2.4788899e-05   -1486647.8            0   -1486647.8   -64.806514 
0.0305 1431.23007526147 1859.52975400902 2288.54218719607 8.94789303099426e-08 -1.10376210146994e-05 2.51049966874399e-05 13511189.6808912 -1486647.82277644 -64.7977373561952
     418 2.5104997e-05   -1486647.8            0   -1486647.8   -64.797737 
0.031 1431.2300956066 1859.52975400906 2288.54218719601 8.82302916615492e-08 -1.2088868989852e-05 2.54336283884255e-05 13511189.6808912 -1486647.82272059 -64.7889622533307
     419 2.5433628e-05   -1486647.8            0   -1486647.8   -64.788962 
0.0315 1431.23011594927 1859.5297540091 2288.54218719596 8.68679145032736e-08 -1.31442132744429e-05 2.57749418594896e-05 13511189.6808912 -1486647.82266404 -64.7801888406485
     420 2.5774942e-05   -1486647.8            0   -1486647.8   -64.780189 
0.032 1431.23013628944 1859.52975400915 2288.54218719589 8.53913832100576e-08 -1.42031591922846e-05 2.61290742256099e-05 13511189.6808912 -1486647.82260682 -64.771417137928
     421 2.6129074e-05   -1486647.8            0   -1486647.8   -64.771417 
0.0325 1431.23015662706 1859.52975400919 2288.54218719584 8.38003389957078e-08 -1.52651486863029e-05 2.64961518798028e-05 13511189.6808912 -1486647.82254893 -64.7626471650184
     422 2.6496152e-05   -1486647.8            0   -1486647.8   -64.762647 
0.033 1431.2301769621 1859.52975400923 2288.54218719578 8.20944811222588e-08 -1.6329664681252e-05 2.68762902615141e-05 13511189.6808912 -1486647.82249037 -64.7538789414417
     423 2.687629e-05   -1486647.8            0   -1486647.8   -64.753879 
0.0335 1431.23019729452 1859.52975400927 2288.54218719573 8.02735679826842e-08 -1.73961290667697e-05 2.72695936544635e-05 13511189.6808912 -1486647.82243116 -64.7451124867762
     424 2.7269594e-05   -1486647.8            0   -1486647.8   -64.745112 
0.034 1431.23021762427 1859.52975400931 2288.54218719567 7.8337416611283e-08 -1.84640338359435e-05 2.76761550033058e-05 13511189.6808912 -1486647.82237131 -64.7363478203853
     425 2.7676155e-05   -1486647.8            0   -1486647.8   -64.736348 
0.0345 1431.23023795132 1859.52975400935 2288.54218719562 7.62859026475845e-08 -1.95328015469048e-05 2.80960557501071e-05 13511189.6808912 -1486647.82231083 -64.7275849614994
     426 2.8096056e-05   -1486647.8            0   -1486647.8   -64.727585 
0.035 1431.23025827563 1859.52975400939 2288.54218719557 7.41189597031357e-08 -2.06019359207447e-05 2.8529365690431e-05 13511189.6808912 -1486647.82224972 -64.7188239292099
     427 2.8529366e-05   -1486647.8            0   -1486647.8   -64.718824 
0.0355 1431.23027859716 1859.52975400942 2288.54218719551 7.18365802564446e-08 -2.16708429399841e-05 2.89761428492983e-05 13511189.6808912 -1486647.822188 -64.7100647425831
     428 2.8976143e-05   -1486647.8            0   -1486647.8   -64.710065 
0.036 1431.23029891587 1859.52975400946 2288.54218719546 6.94388176205033e-08 -2.27389898845345e-05 2.94364333770162e-05 13511189.6808912 -1486647.82212568 -64.7013074203775
     429 2.9436433e-05   -1486647.8            0   -1486647.8   -64.701307 
0.0365 1431.23031923172 1859.52975400949 2288.54218719541 6.69257854535862e-08 -2.38057917975807e-05 2.99102714654118e-05 13511189.6808912 -1486647.82206277 -64.6925519812175
     430 2.9910271e-05   -1486647.8            0   -1486647.8   -64.692552 
0.037 1431.23033954467 1859.52975400953 2288.54218719537 6.42976544299494e-08 -2.48707776222363e-05 3.03976792840321e-05 13511189.6808912 -1486647.82199928 -64.6837984439027
     431 3.0397679e-05   -1486647.8            0   -1486647.8   -64.683798 
0.0375 1431.23035985468 1859.52975400956 2288.54218719532 6.15546511284288e-08 -2.59333829863529e-05 3.08986669360668e-05 13511189.6808912 -1486647.82193521 -64.6750468268053
     432 3.0898667e-05   -1486647.8            0   -1486647.8   -64.675047 
0.038 1431.23038016172 1859.52975400959 2288.54218719528 5.86970630743454e-08 -2.69930434500824e-05 3.14132324351031e-05 13511189.6808912 -1486647.82187059 -64.666297148378
     433 3.1413232e-05   -1486647.8            0   -1486647.8   -64.666297 
0.0385 1431.23040046573 1859.52975400962 2288.54218719523 5.57252346229017e-08 -2.80492708864029e-05 3.1941361701327e-05 13511189.6808912 -1486647.82180541 -64.6575494265587
     434 3.1941362e-05   -1486647.8            0   -1486647.8   -64.657549 
0.039 1431.23042076669 1859.52975400964 2288.54218719519 5.2639567576376e-08 -2.91014894241677e-05 3.24830285784212e-05 13511189.6808912 -1486647.8217397 -64.6488036797437
     435 3.2483029e-05   -1486647.8            0   -1486647.8   -64.648804 
0.0395 1431.23044106455 1859.52975400967 2288.54218719515 4.94405256119441e-08 -3.01491289270802e-05 3.30381948690472e-05 13511189.6808912 -1486647.82167345 -64.6400599257157
     436 3.3038195e-05   -1486647.8            0   -1486647.8    -64.64006 
0.04 1431.23046135928 1859.52975400969 2288.54218719511 4.6128627091097e-08 -3.11917467033592e-05 3.36068103912585e-05 13511189.6808912 -1486647.82160668 -64.6313181823425
     437 3.360681e-05   -1486647.8            0   -1486647.8   -64.631318 
0.0405 1431.23048165082 1859.52975400972 2288.54218719507 4.27044471249764e-08 -3.22287343638911e-05 3.41888130535149e-05 13511189.6808912 -1486647.82153941 -64.6225784673473
     438 3.4188813e-05   -1486647.8            0   -1486647.8   -64.622578 
0.041 1431.23050193915 1859.52975400973 2288.54218719504 3.91686207712655e-08 -3.32595900061238e-05 3.4784128949089e-05 13511189.6808912 -1486647.82147164 -64.613840798348
     439 3.4784129e-05   -1486647.8            0   -1486647.8   -64.613841 
0.0415 1431.23052222423 1859.52975400975 2288.54218719501 3.55218396805895e-08 -3.4283767354166e-05 3.53926724693744e-05 13511189.6808912 -1486647.82140338 -64.6051051927338
     440 3.5392672e-05   -1486647.8            0   -1486647.8   -64.605105 
0.042 1431.23054250601 1859.52975400977 2288.54218719497 3.17648493702401e-08 -3.53008149998112e-05 3.60143464358747e-05 13511189.6808912 -1486647.82133464 -64.5963716678756
     441 3.6014346e-05   -1486647.8            0   -1486647.8   -64.596372 
0.0425 1431.23056278446 1859.52975400979 2288.54218719494 2.7898450750888e-08 -3.63101583903743e-05 3.66490422501765e-05 13511189.6808912 -1486647.82126543 -64.5876402409117
     442 3.6649042e-05   -1486647.8            0   -1486647.8    -64.58764 
0.043 1431.23058305953 1859.5297540098 2288.54218719492 2.392350412575e-08 -3.73112720476132e-05 3.72966400620656e-05 13511189.6808912 -1486647.82119577 -64.5789109291859
     443 3.729664e-05   -1486647.8            0   -1486647.8   -64.578911 
0.0435 1431.2306033312 1859.52975400981 2288.54218719489 1.98409261770745e-08 -3.83036372332498e-05 3.79570089543102e-05 13511189.6808912 -1486647.82112566 -64.5701837493165
     444 3.7957009e-05   -1486647.8            0   -1486647.8   -64.570184 
0.044 1431.2306235994 1859.52975400982 2288.54218719487 1.56516856895596e-08 -3.92868076771578e-05 3.86300071458665e-05 13511189.6808912 -1486647.82105512 -64.5614587182489
     445 3.8630007e-05   -1486647.8            0   -1486647.8   -64.561459 
0.0445 1431.23064386412 1859.52975400982 2288.54218719485 1.13568037944324e-08 -4.02602601203885e-05 3.93154822101462e-05 13511189.6808912 -1486647.82098415 -64.552735852231
     446 3.9315482e-05   -1486647.8            0   -1486647.8   -64.552736 
0.045 1431.23066412531 1859.52975400983 2288.54218719483 6.95735655317725e-09 -4.12235004386402e-05 4.00132713103354e-05 13511189.6808912 -1486647.82091277 -64.5440151681005
     447 4.0013271e-05   -1486647.8            0   -1486647.8   -64.544015 
0.0455 1431.23068438292 1859.52975400983 2288.54218719482 2.4544753932689e-09 -4.21759973025931e-05 4.07232014491895e-05 13511189.6808912 -1486647.82084098 -64.5352966823251
     448 4.0723201e-05   -1486647.8            0   -1486647.8   -64.535297 
0.046 1431.23070463692 1859.52975400983 2288.5421871948 -2.15065548135502e-09 -4.31173045495254e-05 4.1445089734819e-05 13511189.6808912 -1486647.8207688 -64.5265804112638
     449 4.144509e-05   -1486647.8            0   -1486647.8    -64.52658 
0.0465 1431.23072488728 1859.52975400983 2288.54218719479 -6.85680235352058e-09 -4.40469512895233e-05 4.21787436600394e-05 13511189.6808912 -1486647.82069624 -64.5178663710414
     450 4.2178744e-05   -1486647.8            0   -1486647.8   -64.517866 
0.047 1431.23074513395 1859.52975400983 2288.54218719478 -1.16626775488194e-08 -4.49644090509591e-05 4.29239613958849e-05 13511189.6808912 -1486647.8206233 -64.5091545776494
     451 4.2923961e-05   -1486647.8            0   -1486647.8   -64.509155 
0.0475 1431.23076537688 1859.52975400982 2288.54218719477 -1.65669428973897e-08 -4.58692710608263e-05 4.36805320981152e-05 13511189.6808912 -1486647.82055 -64.5004450469468
     452 4.3680532e-05   -1486647.8            0   -1486647.8   -64.500445 
0.048 1431.23078561605 1859.52975400981 2288.54218719477 -2.15682119609117e-08 -4.67610500944835e-05 4.44482362262004e-05 13511189.6808912 -1486647.82047635 -64.4917377947677
     453 4.4448236e-05   -1486647.8            0   -1486647.8   -64.491738 
0.0485 1431.23080585142 1859.5297540098 2288.54218719477 -2.666504492726e-08 -4.76392448209301e-05 4.52268458740081e-05 13511189.6808912 -1486647.82040236 -64.4830328366991
     454 4.5226846e-05   -1486647.8            0   -1486647.8   -64.483033 
0.049 1431.23082608293 1859.52975400978 2288.54218719477 -3.18559553827745e-08 -4.85034934472137e-05 4.60161251118901e-05 13511189.6808912 -1486647.82032804 -64.4743301882034
     455 4.6016125e-05   -1486647.8            0   -1486647.8    -64.47433 
0.0495 1431.23084631056 1859.52975400977 2288.54218719478 -3.71394113313047e-08 -4.93533135164231e-05 4.68158303390737e-05 13511189.6808912 -1486647.82025339 -64.4656298645474
     456 4.681583e-05   -1486647.8            0   -1486647.8    -64.46563 
0.05 1431.23086653427 1859.52975400974 2288.54218719478 -4.25138315567783e-08 -5.01882758654193e-05 4.76257106457621e-05 13511189.6808912 -1486647.82017843 -64.4569318806632
     457 4.7625711e-05   -1486647.8            0   -1486647.8   -64.456932 
Loop time of 2.38816 on 128 procs for 100 steps with 360800 atoms

Performance: 1.809 ns/day, 13.268 hours/ns, 41.873 timesteps/s
89.8% CPU use with 128 MPI tasks x 1 OpenMP threads

MPI task timing breakdown:
Section |  min time  |  avg time  |  max time  |%varavg| %total
---------------------------------------------------------------
Pair    | 0.1414     | 0.42095    | 0.98248    |  50.6 | 17.63
Neigh   | 0          | 0          | 0          |   0.0 |  0.00
Comm    | 0.0084291  | 0.12332    | 0.40727    |  46.7 |  5.16
Output  | 0.268      | 0.27345    | 0.275      |   0.2 | 11.45
Modify  | 0.63565    | 1.4169     | 1.8031     |  37.9 | 59.33
Other   |            | 0.1535     |            |       |  6.43

Nlocal:        2818.75 ave        9200 max           0 min
Histogram: 88 0 0 0 0 0 0 0 1 39
Nghost:        3899.30 ave       13317 max           0 min
Histogram: 87 1 0 0 0 0 2 0 0 38
Neighs:         0.00000 ave           0 max           0 min
Histogram: 128 0 0 0 0 0 0 0 0 0
FullNghs:      472488.0 ave  1.5456e+06 max           0 min
Histogram: 88 0 0 0 0 0 0 1 0 39

Total # of neighbors = 60478400
Ave neighs/atom = 167.62306
Neighbor list builds = 0
Dangerous builds = 0
WARNING: One or more atoms are time integrated more than once (../modify.cpp:281)
Setting up Verlet run ...
  Unit style    : metal
  Current step  : 457
  Time step     : 0.0005
0.05 1431.23086653427 1859.52975400974 2288.54218719478 -4.25138315567783e-08 -5.01882759065266e-05 4.76257106457621e-05 13511189.6808912 -1486647.82017843 -64.4569318806634
Per MPI rank memory allocation (min/avg/max) = 1.475 | 2.553 | 5.050 Mbytes
Step Temp E_pair E_mol TotEng Press 
     457 4.7625711e-05   -1486647.8            0   -1486647.8   -64.456932 
0.0505 1431.23088675401 1859.52975400972 2288.5421871948 -4.79775891274354e-08 -5.10079628993701e-05 4.84455081843646e-05 13511189.6808912 -1486647.82010318 -64.4482362517753
     458 4.8445508e-05   -1486647.8            0   -1486647.8   -64.448236 
0.051 1431.23090696975 1859.5297540097 2288.54218719481 -5.35290102842321e-08 -5.18119250313e-05 4.92749585486035e-05 13511189.6808912 -1486647.82002763 -64.4395429925933
     459 4.9274959e-05   -1486647.8            0   -1486647.8   -64.439543 
0.0515 1431.23092718144 1859.52975400967 2288.54218719482 -5.91663777750756e-08 -5.25998061742991e-05 5.01137911609467e-05 13511189.6808912 -1486647.8199518 -64.4308521179647
     460 5.0113791e-05   -1486647.8            0   -1486647.8   -64.430852 
0.052 1431.23094738905 1859.52975400964 2288.54218719484 -6.48879316125075e-08 -5.33711709391506e-05 5.09617296659066e-05 13511189.6808912 -1486647.8198757 -64.4221636424995
     461 5.096173e-05   -1486647.8            0   -1486647.8   -64.422164 
0.0525 1431.23096759254 1859.5297540096 2288.54218719486 -7.06918695448346e-08 -5.41256719238383e-05 5.18184923299139e-05 13511189.6808912 -1486647.81979934 -64.4134775805682
     462 5.1818492e-05   -1486647.8            0   -1486647.8   -64.413478 
0.053 1431.23098779187 1859.52975400957 2288.54218719489 -7.65763447511943e-08 -5.4862831048584e-05 5.26837924463361e-05 13511189.6808912 -1486647.81972274 -64.4047939464406
     463 5.2683792e-05   -1486647.8            0   -1486647.8   -64.404794 
0.0535 1431.231007987 1859.52975400953 2288.54218719492 -8.25394690630889e-08 -5.55823605786082e-05 5.35573387447055e-05 13511189.6808912 -1486647.81964588 -64.3961127542449
     464 5.3557339e-05   -1486647.8            0   -1486647.8   -64.396113 
0.054 1431.23102817789 1859.52975400949 2288.54218719495 -8.85793164498714e-08 -5.62838469900615e-05 5.44388358041862e-05 13511189.6808912 -1486647.8195688 -64.3874340181128
     465 5.4438836e-05   -1486647.8            0   -1486647.8   -64.387434 
0.0545 1431.2310483645 1859.52975400944 2288.54218719499 -9.46939190849184e-08 -5.69669296883376e-05 5.5327984469215e-05 13511189.6808912 -1486647.8194915 -64.3787577518443
     466 5.5327984e-05   -1486647.8            0   -1486647.8   -64.378758 
0.055 1431.23106854679 1859.52975400939 2288.54218719503 -1.00881271512372e-07 -5.76312723233088e-05 5.62244822679478e-05 13511189.6808912 -1486647.81941399 -64.3700839691819
     467 5.6224482e-05   -1486647.8            0   -1486647.8   -64.370084 
0.0555 1431.23108872473 1859.52975400934 2288.54218719507 -1.07139331468898e-07 -5.82765295204829e-05 5.71280238316722e-05 13511189.6808912 -1486647.81933627 -64.361412683592
     468 5.7128024e-05   -1486647.8            0   -1486647.8   -64.361413 
0.056 1431.23110889827 1859.52975400929 2288.54218719512 -1.13466019761001e-07 -5.89023626574072e-05 5.80383013150802e-05 13511189.6808912 -1486647.81925836 -64.3527439085041
     469 5.8038301e-05   -1486647.8            0   -1486647.8   -64.352744 
0.0565 1431.23112906737 1859.52975400923 2288.54218719517 -1.19859222752345e-07 -5.95084724281678e-05 5.89550048161146e-05 13511189.6808912 -1486647.81918027 -64.3440776571947
     470 5.8955005e-05   -1486647.8            0   -1486647.8   -64.344078 
0.057 1431.231149232 1859.52975400917 2288.54218719521 -1.26316794419336e-07 -6.00945582825111e-05 5.98778227951351e-05 13511189.6808912 -1486647.819102 -64.3354139425911
     471 5.9877823e-05   -1486647.8            0   -1486647.8   -64.335414 
0.0575 1431.23116939211 1859.5297540091 2288.54218719527 -1.3283655543494e-07 -6.06603039455914e-05 6.0806442492586e-05 13511189.6808912 -1486647.81902357 -64.3267527776645
     472 6.0806442e-05   -1486647.8            0   -1486647.8   -64.326753 
0.058 1431.23118954767 1859.52975400903 2288.54218719533 -1.39416295637912e-07 -6.12054546006096e-05 6.17405503437682e-05 13511189.6808912 -1486647.81894498 -64.3180941751347
     473 6.174055e-05   -1486647.8            0   -1486647.8   -64.318094 
0.0585 1431.23120969864 1859.52975400896 2288.54218719539 -1.4605377402706e-07 -6.17296938665393e-05 6.26798323908792e-05 13511189.6808912 -1486647.81886625 -64.3094381476841
     474 6.2679832e-05   -1486647.8            0   -1486647.8   -64.309438 
0.059 1431.23122984498 1859.52975400888 2288.54218719546 -1.52746717932607e-07 -6.22327515790016e-05 6.36239746910047e-05 13511189.6808912 -1486647.81878738 -64.3007847077324
     475 6.3623975e-05   -1486647.8            0   -1486647.8   -64.300785 
0.0595 1431.23124998665 1859.52975400881 2288.54218719553 -1.59492828207818e-07 -6.27144075130191e-05 6.45726637198266e-05 13511189.6808912 -1486647.81870838 -64.2921338675383
     476 6.4572664e-05   -1486647.8            0   -1486647.8   -64.292134 
0.06 1431.2312701236 1859.52975400873 2288.5421871956 -1.66289776540052e-07 -6.31743417012628e-05 6.55255867699939e-05 13511189.6808912 -1486647.81862927 -64.2834856391015
     477 6.5525587e-05   -1486647.8            0   -1486647.8   -64.283486 
0.0605 1431.23129025581 1859.52975400864 2288.54218719568 -1.73135208968519e-07 -6.3612399072356e-05 6.64824323436215e-05 13511189.6808912 -1486647.81855004 -64.2748400345632
     478 6.6482432e-05   -1486647.8            0   -1486647.8    -64.27484 
0.061 1431.23131038323 1859.52975400855 2288.54218719577 -1.80026748961175e-07 -6.40283166472732e-05 6.74428905378118e-05 13511189.6808912 -1486647.81847071 -64.2661970657186
     479 6.7442891e-05   -1486647.8            0   -1486647.8   -64.266197 
0.0615 1431.23133050582 1859.52975400846 2288.54218719585 -1.8696199569358e-07 -6.4421907476759e-05 6.84066534238523e-05 13511189.6808912 -1486647.81839128 -64.2575567439968
     480 6.8406653e-05   -1486647.8            0   -1486647.8   -64.257557 
0.062 1431.23135062355 1859.52975400836 2288.54218719594 -1.93938526654574e-07 -6.47929568424419e-05 6.93734154184069e-05 13511189.6808912 -1486647.81831177 -64.2489190809762
     481 6.9373415e-05   -1486647.8            0   -1486647.8   -64.248919 
0.0625 1431.23137073637 1859.52975400827 2288.54218719603 -2.00953897923492e-07 -6.51412829294847e-05 7.03428736457057e-05 13511189.6808912 -1486647.81823219 -64.2402840879775
     482 7.0342874e-05   -1486647.8            0   -1486647.8   -64.240284 
0.063 1431.23139084425 1859.52975400817 2288.54218719613 -2.08005645632161e-07 -6.54666980976981e-05 7.13147282914154e-05 13511189.6808912 -1486647.81815253 -64.2316517761727
     483 7.1314728e-05   -1486647.8            0   -1486647.8   -64.231652 
0.0635 1431.23141094714 1859.52975400806 2288.54218719623 -2.15091285804366e-07 -6.57690175588514e-05 7.22886829469297e-05 13511189.6808912 -1486647.81807282 -64.223022156478
     484 7.2288683e-05   -1486647.8            0   -1486647.8   -64.223022 
0.064 1431.23143104501 1859.52975400795 2288.54218719633 -2.22208317876312e-07 -6.60481188766729e-05 7.3264444943739e-05 13511189.6808912 -1486647.81799305 -64.214395239759
     485 7.3264445e-05   -1486647.8            0   -1486647.8   -64.214395 
0.0645 1431.23145113782 1859.52975400784 2288.54218719644 -2.29354226402654e-07 -6.63038488607645e-05 7.42417256770169e-05 13511189.6808912 -1486647.81791323 -64.2057710367195
     486 7.4241726e-05   -1486647.8            0   -1486647.8   -64.205771 
0.065 1431.23147122553 1859.52975400772 2288.54218719655 -2.36526479343345e-07 -6.65360533450581e-05 7.52202409184181e-05 13511189.6808912 -1486647.81783338 -64.1971495579262
     487 7.5220241e-05   -1486647.8            0   -1486647.8    -64.19715 
0.0655 1431.23149130809 1859.5297540076 2288.54218719666 -2.43722529613323e-07 -6.67446078414459e-05 7.61997111175949e-05 13511189.6808912 -1486647.8177535 -64.188530813592
     488 7.6199711e-05   -1486647.8            0   -1486647.8   -64.188531 
0.066 1431.23151138549 1859.52975400748 2288.54218719679 -2.50939820540839e-07 -6.69294592794857e-05 7.71798616919746e-05 13511189.6808912 -1486647.8176736 -64.1799148140739
     489 7.7179862e-05   -1486647.8            0   -1486647.8   -64.179915 
0.0665 1431.23153145766 1859.52975400735 2288.54218719691 -2.58175785493825e-07 -6.70904762509759e-05 7.81604233037786e-05 13511189.6808912 -1486647.81759369 -64.1713015692896
     490 7.8160423e-05   -1486647.8            0   -1486647.8   -64.171302 
0.067 1431.23155152457 1859.52975400722 2288.54218719704 -2.65427846150269e-07 -6.72275736503598e-05 7.91411321251488e-05 13511189.6808912 -1486647.81751376 -64.1626910892741
     491 7.9141132e-05   -1486647.8            0   -1486647.8   -64.162691 
0.0675 1431.23157158619 1859.52975400708 2288.54218719717 -2.72693417773394e-07 -6.7340717773072e-05 8.01217300897914e-05 13511189.6808912 -1486647.81743384 -64.1540833836868
     492 8.012173e-05   -1486647.8            0   -1486647.8   -64.154083 
0.068 1431.23159164248 1859.52975400695 2288.5421871973 -2.79969905707262e-07 -6.74297586072303e-05 8.11019651321578e-05 13511189.6808912 -1486647.81735393 -64.1454784622091
     493 8.1101965e-05   -1486647.8            0   -1486647.8   -64.145478 
0.0685 1431.23161169339 1859.52975400681 2288.54218719744 -2.87254709585504e-07 -6.74947403997864e-05 8.20815914124363e-05 13511189.6808912 -1486647.81727403 -64.136876334198
     494 8.2081591e-05   -1486647.8            0   -1486647.8   -64.136876 
0.069 1431.23163173889 1859.52975400666 2288.54218719758 -2.94545229449408e-07 -6.75356264541384e-05 8.30603695282705e-05 13511189.6808912 -1486647.81719415 -64.1282770091514
     495 8.306037e-05   -1486647.8            0   -1486647.8   -64.128277 
0.0695 1431.23165177894 1859.52975400651 2288.54218719773 -3.01838861206413e-07 -6.75523769023751e-05 8.4038066711968e-05 13511189.6808912 -1486647.81711429 -64.1196804962489
     496 8.4038067e-05   -1486647.8            0   -1486647.8    -64.11968 
0.07 1431.23167181351 1859.52975400636 2288.54218719788 -3.0913299722369e-07 -6.7544966041845e-05 8.5014457014521e-05 13511189.6808912 -1486647.81703448 -64.1110868043326
     497 8.5014457e-05   -1486647.8            0   -1486647.8   -64.111087 
0.0705 1431.23169184254 1859.5297540062 2288.54218719804 -3.16425029283132e-07 -6.75134087349755e-05 8.59893214749785e-05 13511189.6808912 -1486647.8169547 -64.1024959425077
     498 8.5989321e-05   -1486647.8            0   -1486647.8   -64.102496 
0.071 1431.231711866 1859.52975400604 2288.5421871982 -3.2371235057482e-07 -6.74577162009981e-05 8.69624482748637e-05 13511189.6808912 -1486647.81687497 -64.0939079193592
     499 8.6962448e-05   -1486647.8            0   -1486647.8   -64.093908 
0.0715 1431.23173188386 1859.52975400587 2288.54218719836 -3.30992358623043e-07 -6.73779574960277e-05 8.79336328790404e-05 13511189.6808912 -1486647.81679529 -64.0853227437515
     500 8.7933633e-05   -1486647.8            0   -1486647.8   -64.085323 
0.072 1431.23175189607 1859.52975400571 2288.54218719853 -3.38262453039918e-07 -6.72741022334691e-05 8.89026781611473e-05 13511189.6808912 -1486647.81671568 -64.076740424027
     501 8.8902678e-05   -1486647.8            0   -1486647.8    -64.07674 
0.0725 1431.2317719026 1859.52975400554 2288.5421871987 -3.45520037287053e-07 -6.71462520976377e-05 8.98693945154455e-05 13511189.6808912 -1486647.81663613 -64.0681609687081
     502 8.9869395e-05   -1486647.8            0   -1486647.8   -64.068161 
0.073 1431.2317919034 1859.52975400536 2288.54218719887 -3.52762519943936e-07 -6.69944001943912e-05 9.08335999530777e-05 13511189.6808912 -1486647.81655665 -64.0595843861074
     503  9.08336e-05   -1486647.8            0   -1486647.8   -64.059584 
0.0735 1431.23181189844 1859.52975400518 2288.54218719905 -3.59987319134695e-07 -6.68187301976133e-05 9.17951201846057e-05 13511189.6808912 -1486647.81647724 -64.0510106842152
     504 9.179512e-05   -1486647.8            0   -1486647.8   -64.051011 
0.074 1431.23183188768 1859.529754005 2288.54218719924 -3.67191863691234e-07 -6.6619256756044e-05 9.27537886879727e-05 13511189.6808912 -1486647.81639792 -64.0424398711242
     505 9.2753789e-05   -1486647.8            0   -1486647.8    -64.04244 
0.0745 1431.23185187109 1859.52975400482 2288.54218719942 -3.74373589506221e-07 -6.639609599585e-05 9.37094467614728e-05 13511189.6808912 -1486647.81631869 -64.0338719548186
     506 9.3709447e-05   -1486647.8            0   -1486647.8   -64.033872 
0.075 1431.23187184861 1859.52975400463 2288.54218719961 -3.8152994375407e-07 -6.61493407443044e-05 9.4661943562802e-05 13511189.6808912 -1486647.81623955 -64.0253069431935
     507 9.4661944e-05   -1486647.8            0   -1486647.8   -64.025307 
0.0755 1431.23189182022 1859.52975400444 2288.54218719981 -3.8865838854561e-07 -6.58791748167466e-05 9.56111361341303e-05 13511189.6808912 -1486647.81616051 -64.0167448438365
     508 9.5611136e-05   -1486647.8            0   -1486647.8   -64.016745 
0.076 1431.23191178587 1859.52975400424 2288.5421872 -3.95756400935912e-07 -6.55856911856821e-05 9.65568894132757e-05 13511189.6808912 -1486647.81608157 -64.0081856644534
     509 9.6556889e-05   -1486647.8            0   -1486647.8   -64.008186 
0.0765 1431.23193174553 1859.52975400404 2288.54218720021 -4.02821471722727e-07 -6.52690514117454e-05 9.74990762304945e-05 13511189.6808912 -1486647.81600274 -63.9996294126651
     510 9.7499076e-05   -1486647.8            0   -1486647.8   -63.999629 
0.077 1431.23195169915 1859.52975400384 2288.54218720041 -4.09851108296236e-07 -6.49294012487322e-05 9.84375772922569e-05 13511189.6808912 -1486647.81592402 -63.9910760958053
     511 9.8437577e-05   -1486647.8            0   -1486647.8   -63.991076 
0.0775 1431.2319716467 1859.52975400363 2288.54218720062 -4.16842836011241e-07 -6.45669276721045e-05 9.93722811518511e-05 13511189.6808912 -1486647.81584542 -63.98252572123
     512 9.9372281e-05   -1486647.8            0   -1486647.8   -63.982526 
0.078 1431.23199158815 1859.52975400342 2288.54218720084 -4.23794198148838e-07 -6.41817757257827e-05 0.000100303084166413 13511189.6808912 -1486647.81576694 -63.9739782963233
     513 0.00010030308   -1486647.8            0   -1486647.8   -63.973978 
0.0785 1431.23201152344 1859.52975400321 2288.54218720105 -4.30702760411317e-07 -6.37742156369774e-05 0.000101229890441324 13511189.6808912 -1486647.81568859 -63.9654338281712
     514 0.00010122989   -1486647.8            0   -1486647.8   -63.965434 
0.079 1431.23203145255 1859.52975400299 2288.54218720127 -4.37566111564688e-07 -6.33444043499732e-05 0.000102152611762586 13511189.6808912 -1486647.81561037 -63.9568923239101
     515 0.00010215261   -1486647.8            0   -1486647.8   -63.956892 
0.0795 1431.23205137542 1859.52975400277 2288.5421872015 -4.44381862278383e-07 -6.28925906017667e-05 0.000103071167516966 13511189.6808912 -1486647.81553228 -63.9483537906799
     516 0.00010307117   -1486647.8            0   -1486647.8   -63.948354 
0.08 1431.23207129204 1859.52975400255 2288.54218720173 -4.51147646798984e-07 -6.2418962336274e-05 0.000103985484600034 13511189.6808912 -1486647.81545434 -63.9398182356199
     517 0.00010398548   -1486647.8            0   -1486647.8   -63.939818 
0.0805 1431.23209120235 1859.52975400232 2288.54218720196 -4.57861123723074e-07 -6.19237826048121e-05 0.000104895497313092 13511189.6808912 -1486647.81537653 -63.9312856656411
     518 0.0001048955   -1486647.8            0   -1486647.8   -63.931286 
0.081 1431.23211110632 1859.52975400209 2288.54218720219 -4.64519980262273e-07 -6.14073183455366e-05 0.00010580114724944 13511189.6808912 -1486647.81529887 -63.9227560879903
     519 0.00010580115   -1486647.8            0   -1486647.8   -63.922756 
0.0815 1431.23213100391 1859.52975400185 2288.54218720243 -4.71121929968988e-07 -6.08697904876353e-05 0.000106702383169406 13511189.6808912 -1486647.81522136 -63.9142295092124
     520 0.00010670238   -1486647.8            0   -1486647.8    -63.91423 
0.082 1431.23215089508 1859.52975400162 2288.54218720268 -4.77664714388261e-07 -6.03114965636073e-05 0.000107599160866239 13511189.6808912 -1486647.81514401 -63.9057059361869
     521 0.00010759916   -1486647.8            0   -1486647.8   -63.905706 
0.0825 1431.23217077979 1859.52975400137 2288.54218720292 -4.84146104117143e-07 -5.9732677123847e-05 0.000108491443021515 13511189.6808912 -1486647.81506681 -63.8971853756581
     522 0.00010849144   -1486647.8            0   -1486647.8   -63.897185 
0.083 1431.23219065801 1859.52975400113 2288.54218720317 -4.90563903208535e-07 -5.91337112658367e-05 0.000109379199051825 13511189.6808912 -1486647.81498976 -63.8886678343484
     523 0.0001093792   -1486647.8            0   -1486647.8   -63.888668 
0.0835 1431.23221052969 1859.52975400088 2288.54218720342 -4.96915947610044e-07 -5.85148106255494e-05 0.000110262404946447 13511189.6808912 -1486647.81491289 -63.8801533190769
     524 0.0001102624   -1486647.8            0   -1486647.8   -63.880153 
0.084 1431.23223039479 1859.52975400063 2288.54218720368 -5.03200105891628e-07 -5.78763677774896e-05 0.000111141043096752 13511189.6808912 -1486647.81483617 -63.8716418365437
     525 0.00011114104   -1486647.8            0   -1486647.8   -63.871642 
0.0845 1431.23225025329 1859.52975400038 2288.54218720394 -5.09414283890459e-07 -5.72186803866593e-05 0.000112015102118086 13511189.6808912 -1486647.81475963 -63.8631333935395
     526 0.0001120151   -1486647.8            0   -1486647.8   -63.863133 
0.085 1431.23227010514 1859.52975400013 2288.5421872042 -5.15556421509868e-07 -5.65420817398265e-05 0.000112884576664379 13511189.6808912 -1486647.81468325 -63.8546279965651
     527 0.00011288458   -1486647.8            0   -1486647.8   -63.854628 
0.0855 1431.23228995029 1859.52975399986 2288.54218720447 -5.21624494695361e-07 -5.58469061004829e-05 0.000113749467236229 13511189.6808912 -1486647.81460705 -63.8461256525215
     528 0.00011374947   -1486647.8            0   -1486647.8   -63.846126 
0.086 1431.23230978872 1859.5297539996 2288.54218720475 -5.27616516062237e-07 -5.51334983795286e-05 0.000114609779981886 13511189.6808912 -1486647.81453103 -63.8376263681225
     529 0.00011460978   -1486647.8            0   -1486647.8   -63.837626 
0.0865 1431.23232962039 1859.52975399934 2288.54218720501 -5.33530536520019e-07 -5.44022229275252e-05 0.000115465526493693 13511189.6808912 -1486647.81445518 -63.8291301500035
     530 0.00011546553   -1486647.8            0   -1486647.8    -63.82913 
0.087 1431.23234944525 1859.52975399907 2288.54218720529 -5.39364647634405e-07 -5.36534684014821e-05 0.000116316723599017 13511189.6808912 -1486647.81437951 -63.8206370049102
     531 0.00011631672   -1486647.8            0   -1486647.8   -63.820637 
0.0875 1431.23236926327 1859.5297539988 2288.54218720557 -5.45116983214855e-07 -5.28876285566317e-05 0.000117163393146339 13511189.6808912 -1486647.81430403 -63.8121469395341
     532 0.00011716339   -1486647.8            0   -1486647.8   -63.812147 
0.088 1431.23238907441 1859.52975399853 2288.54218720585 -5.50785718440314e-07 -5.21050758568482e-05 0.000118005561787355 13511189.6808912 -1486647.81422873 -63.8036599608787
     533 0.00011800556   -1486647.8            0   -1486647.8    -63.80366 
0.0885 1431.23240887863 1859.52975399825 2288.54218720614 -5.56369070554555e-07 -5.13062169363345e-05 0.000118843260755407 13511189.6808912 -1486647.81415361 -63.7951760755086
     534 0.00011884326   -1486647.8            0   -1486647.8   -63.795176 
0.089 1431.23242867589 1859.52975399797 2288.54218720643 -5.61865299949742e-07 -5.04914443278465e-05 0.000119676525641789 13511189.6808912 -1486647.81407868 -63.7866952904189
     535 0.00011967653   -1486647.8            0   -1486647.8   -63.786695 
0.0895 1431.23244846616 1859.52975399769 2288.54218720672 -5.67272709853288e-07 -4.96611588658349e-05 0.000120505396168288 13511189.6808912 -1486647.81400394 -63.7782176124644
     536 0.0001205054   -1486647.8            0   -1486647.8   -63.778218 
0.09 1431.23246824939 1859.5297539974 2288.54218720701 -5.72589648823462e-07 -4.88157993051826e-05 0.000121329915958769 13511189.6808912 -1486647.81392939 -63.76974304865
     537 0.00012132992   -1486647.8            0   -1486647.8   -63.769743 
0.0905 1431.23248802556 1859.52975399711 2288.54218720731 -5.77814512034944e-07 -4.79557902903707e-05 0.000122150132309015 13511189.6808912 -1486647.81385504 -63.7612716058474
     538 0.00012215013   -1486647.8            0   -1486647.8   -63.761272 
0.091 1431.23250779461 1859.52975399682 2288.54218720761 -5.8294574078785e-07 -4.7081561482981e-05 0.00012296609595591 13511189.6808912 -1486647.81378087 -63.75280329129
     539 0.0001229661   -1486647.8            0   -1486647.8   -63.752803 
0.0915 1431.23252755651 1859.52975399653 2288.54218720791 -5.87981823854466e-07 -4.61935624706418e-05 0.000123777860845753 13511189.6808912 -1486647.8137069 -63.7443381119893
     540 0.00012377786   -1486647.8            0   -1486647.8   -63.744338 
0.092 1431.23254731123 1859.52975399623 2288.54218720822 -5.92921299941928e-07 -4.52922685273002e-05 0.000124585483903626 13511189.6808912 -1486647.81363312 -63.7358760751232
     541 0.00012458548   -1486647.8            0   -1486647.8   -63.735876 
0.0925 1431.23256705872 1859.52975399594 2288.54218720852 -5.97762756396064e-07 -4.43781052338367e-05 0.000125389024802638 13511189.6808912 -1486647.81355954 -63.7274171880592
     542 0.00012538902   -1486647.8            0   -1486647.8   -63.727417 
0.093 1431.23258679895 1859.52975399564 2288.54218720884 -6.02504829928154e-07 -4.34515613249029e-05 0.000126188545734673 13511189.6808912 -1486647.81348615 -63.7189614579585
     543 0.00012618855   -1486647.8            0   -1486647.8   -63.718961 
0.0935 1431.23260653188 1859.52975399534 2288.54218720915 -6.07146208750452e-07 -4.25131019340177e-05 0.000126984111183015 13511189.6808912 -1486647.81341296 -63.7105088924579
     544 0.00012698411   -1486647.8            0   -1486647.8   -63.710509 
0.094 1431.23262625746 1859.52975399503 2288.54218720946 -6.11685631454244e-07 -4.15631950160621e-05 0.000127775787696265 13511189.6808912 -1486647.81333997 -63.7020594990022
     545 0.00012777579   -1486647.8            0   -1486647.8   -63.702059 
0.0945 1431.23264597568 1859.52975399472 2288.54218720978 -6.16121887935415e-07 -4.06023228472653e-05 0.000128563643666008 13511189.6808912 -1486647.81326717 -63.6936132851435
     546 0.00012856364   -1486647.8            0   -1486647.8   -63.693613 
0.095 1431.23266568647 1859.52975399442 2288.5421872101 -6.20453820116417e-07 -3.9630966754361e-05 0.000129347749106771 13511189.6808912 -1486647.81319457 -63.6851702587237
     547 0.00012934775   -1486647.8            0   -1486647.8    -63.68517 
0.0955 1431.23268538981 1859.5297539941 2288.54218721043 -6.24680324249685e-07 -3.86496516759544e-05 0.000130128175439522 13511189.6808912 -1486647.81312217 -63.6767304276208
     548 0.00013012818   -1486647.8            0   -1486647.8    -63.67673 
0.096 1431.23270508566 1859.52975399379 2288.54218721075 -6.28800350399038e-07 -3.76588493336019e-05 0.000130904995279492 13511189.6808912 -1486647.81304997 -63.6682937995264
     549  0.000130905   -1486647.8            0   -1486647.8   -63.668294 
[...]
[r232n17:109153] [ 5] /cineca/prod/opt/compilers/spectrum_mpi/10.4.0/binary/container/../lib/pami_port/libpami.so.3(PAMI_Context_advancev+0x994)[0x20000f25a1b4]
[r232n17:109153] lmp_kokkos_cuda_mpi(_ZN9LAMMPS_NS10CommKokkos19forward_comm_deviceIN6Kokkos4CudaEEEvi+0x68c)[0x1124eaec]
[r228n18:24392] [10] linux-vdso64.so.1(__kernel_sigtramp_rt64+0x0)[0x2000000504d8]
[r232n17:109157] [ 1] /lib64/power9/libc.so.6(gsignal+0xd8)[0x20000bb63798]
[r232n17:109157] [ 2] /lib64/power9/libc.so.6(abort+0x164)[0x20000bb43bac]
[r232n17:109157] [ 3] lmp_kokkos_cuda_mpi(_ZN9LAMMPS_NS10CommKokkos12forward_commEi+0x38)[0x11249888]
[r228n18:24389] [11] lmp_kokkos_cuda_mpi(_ZN9LAMMPS_NS12VerletKokkos3runEi+0x156c)[0x12b4485c]
[r228n18:24389] [12] lmp_kokkos_cuda_mpi(_ZN9LAMMPS_NS3Run7commandEiPPc+0x1544)[0x109814d4]
[r228n18:24389] [13] lmp_kokkos_cuda_mpi(_ZN9LAMMPS_NS5Input15execute_commandEv+0x2bf0)[0x1091c6f0]
[r228n18:24389] [14] /cineca/prod/opt/compilers/spectrum_mpi/10.4.0/binary/container/../lib/pami_port/libpami.so.3(_ZN4PAMI6Device3IBV11GpuDmaModelINS1_6DeviceELm1919EE13gpu_put_intraEPvmjmbS5_+0x814)[0x20000f2d4d84]
[r232n17:109157] [ 4] lmp_kokkos_cuda_mpi(_ZN9LAMMPS_NS12VerletKokkos3runEi+0x156c)[0x12b4485c]
[r228n18:24388] [12] lmp_kokkos_cuda_mpi(_ZN9LAMMPS_NS3Run7commandEiPPc+0x1544)[0x109814d4]
[r228n18:24388] [13] lmp_kokkos_cuda_mpi(_ZN9LAMMPS_NS5Input15execute_commandEv+0x2bf0)[0x1091c6f0]
[r228n18:24388] [14] lmp_kokkos_cuda_mpi(_ZN9LAMMPS_NS5Input4fileEv+0x2b0)[0x1091d3b0]
[r228n18:24388] [15] [ 6] /cineca/prod/opt/compilers/spectrum_mpi/10.4.0/binary/container/../lib/spectrum_mpi/mca_pml_pami.so(mca_pml_pami_progress_wait+0x190)[0x20000e0877d0]
[r232n17:109153] [ 7] /cineca/prod/opt/compilers/spectrum_mpi/10.4.0/binary/container/../lib/spectrum_mpi/mca_pml_pami.so(mca_pml_pami_send+0x238)[0x20000e0a6798]
[r232n17:109153] [ 8] /cineca/prod/opt/compilers/spectrum_mpi/10.4.0/binary/container/../lib/libmpi_ibm.so.3(PMPI_Send+0x170)[0x20000b7d6bb0]
[r232n17:109153] [ 9] /__SMPI_build_dir__________________________/ibmsrc/pami/ibm-pami/buildtools/pami_build_port/../pami/components/devices/ibvdevice/CudaIPCPool.h:314: 
Error opening IPC Eventhandle 
[r228n18:24395] *** Process received signal ***
[r228n18:24395] Signal: Aborted (6)
[r228n18:24395] Signal code:  (-6)
[r228n18:24395] [ 0] linux-vdso64.so.1(__kernel_sigtramp_rt64+0x0)[0x2000000504d8]
[r228n18:24395] [ 1] /lib64/power9/libc.so.6(gsignal+0xd8)[0x20000bb63798]
[r228n18:24395] [ 2] /lib64/power9/libc.so.6(abort+0x164)[0x20000bb43bac]
[r228n18:24395] [ 3] /cineca/prod/opt/compilers/spectrum_mpi/10.4.0/binary/container/../lib/pami_port/libpami.so.3(_ZN4PAMI6Device3IBV11GpuDmaModelINS1_6DeviceELm1919EE13gpu_put_intraEPvmjmbS5_+0x814)[0x20000f2d4d84]
[r228n18:24395] [ 4] /cineca/prod/opt/compilers/spectrum_mpi/10.4.0/binary/container/../lib/pami_port/libpami.so.3(_ZN4PAMI8Protocol3Get14GpuGetOverSendINS_6Device3IBV14GpuPacketModelINS4_6DeviceELb0EEENS4_11GpuDmaModelIS6_Lm1919EEEE14dispatch_intraEPvSB_mSB_SB_+0x4c)[0x20000f2d50cc]
[r228n18:24395] [ 5] /cineca/prod/opt/compilers/spectrum_mpi/10.4.0/binary/container/../lib/pami_port/libpami.so.3(PAMI_Context_advancev+0x994)[0x20000f25a1b4]
[r228n18:24395] [ 6] /cineca/prod/opt/compilers/spectrum_mpi/10.4.0/binary/container/../lib/spectrum_mpi/mca_pml_pami.so(mca_pml_pami_progress_wait+0x190)[0x20000e0877d0]
[r228n18:24395] [ 7] /cineca/prod/opt/compilers/spectrum_mpi/10.4.0/binary/container/../lib/spectrum_mpi/mca_pml_pami.so(mca_pml_pami_send+0x238)[0x20000e0a6798]
[r228n18:24395] [ 8] /cineca/prod/opt/compilers/spectrum_mpi/10.4.0/binary/container/../lib/libmpi_ibm.so.3(PMPI_Send+0x170)[0x20000b7d6bb0]
[r228n18:24395] [ 9] /cineca/prod/opt/compilers/spectrum_mpi/10.4.0/binary/container/../lib/pami_port/libpami.so.3(_ZN4PAMI8Protocol3Get14GpuGetOverSendINS_6Device3IBV14GpuPacketModelINS4_6DeviceELb0EEENS4_11GpuDmaModelIS6_Lm1919EEEE14dispatch_intraEPvSB_mSB_SB_+0x4c)[0x20000f2d50cc]
[r232n17:109154] [ 5] /cineca/prod/opt/compilers/spectrum_mpi/10.4.0/binary/container/../lib/pami_port/libpami.so.3(PAMI_Context_advancev+0x994)[0x20000f25a1b4]
[r232n17:109154] [ 6] /cineca/prod/opt/compilers/spectrum_mpi/10.4.0/binary/container/../lib/spectrum_mpi/mca_pml_pami.so(mca_pml_pami_progress_wait+0x190)[0x20000e0877d0]
[r232n17:109154] [ 7] /cineca/prod/opt/compilers/spectrum_mpi/10.4.0/binary/container/../lib/spectrum_mpi/mca_pml_pami.so(mca_pml_pami_send+0x238)[0x20000e0a6798]
[r232n17:109154] [ 8] /cineca/prod/opt/compilers/spectrum_mpi/10.4.0/binary/container/../lib/libmpi_ibm.so.3(PMPI_Send+0x170)[0x20000b7d6bb0]
[r232n17:109154] [ 9] lmp_kokkos_cuda_mpi(_ZN9LAMMPS_NS10CommKokkos12forward_commEi+0x38)[0x11249888]
[r228n18:24392] [11] lmp_kokkos_cuda_mpi(_ZN9LAMMPS_NS12VerletKokkos3runEi+0x156c)[0x12b4485c]
[r228n18:24392] [12] lmp_kokkos_cuda_mpi(_ZN9LAMMPS_NS3Run7commandEiPPc+0x1544)[0x109814d4]
[r228n18:24392] [13] lmp_kokkos_cuda_mpi(_ZN9LAMMPS_NS5Input15execute_commandEv+0x2bf0)[0x1091c6f0]
[r228n18:24392] [14] /cineca/prod/opt/compilers/spectrum_mpi/10.4.0/binary/container/../lib/pami_port/libpami.so.3(_ZN4PAMI8Protocol3Get14GpuGetOverSendINS_6Device3IBV14GpuPacketModelINS4_6DeviceELb0EEENS4_11GpuDmaModelIS6_Lm1919EEEE14dispatch_intraEPvSB_mSB_SB_+0x4c)[0x20000f2d50cc]
[r232n17:109157] [ 5] /cineca/prod/opt/compilers/spectrum_mpi/10.4.0/binary/container/../lib/pami_port/libpami.so.3(PAMI_Context_advancev+0x994)[0x20000f25a1b4]
[r232n17:109157] [ 6] /cineca/prod/opt/compilers/spectrum_mpi/10.4.0/binary/container/../lib/spectrum_mpi/mca_pml_pami.so(mca_pml_pami_progress_wait+0x190)[0x20000e0877d0]
[r232n17:109157] [ 7] /cineca/prod/opt/compilers/spectrum_mpi/10.4.0/binary/container/../lib/spectrum_mpi/mca_pml_pami.so(mca_pml_pami_send+0x238)[0x20000e0a6798]
[r232n17:109157] [ 8] /cineca/prod/opt/compilers/spectrum_mpi/10.4.0/binary/container/../lib/libmpi_ibm.so.3(PMPI_Send+0x170)[0x20000b7d6bb0]
[r232n17:109157] [ 9] lmp_kokkos_cuda_mpi(_ZN9LAMMPS_NS12VerletKokkos3runEi+0x156c)[0x12b4485c]
[r228n18:24379] [12] lmp_kokkos_cuda_mpi(_ZN9LAMMPS_NS3Run7commandEiPPc+0x1544)[0x109814d4]
[r228n18:24379] [13] lmp_kokkos_cuda_mpi(_ZN9LAMMPS_NS5Input15execute_commandEv+0x2bf0)[0x1091c6f0]
[r228n18:24379] [14] /__SMPI_build_dir__________________________/ibmsrc/pami/ibm-pami/buildtools/pami_build_port/../pami/components/devices/ibvdevice/CudaIPCPool.h:314: 
Error opening IPC Eventhandle 
[r232n17:109147] *** Process received signal ***
[r232n17:109147] Signal: Aborted (6)
[r232n17:109147] Signal code:  (-6)
[r232n17:109147] [ 0] linux-vdso64.so.1(__kernel_sigtramp_rt64+0x0)[0x2000000504d8]
[r232n17:109147] [ 1] /lib64/power9/libc.so.6(gsignal+0xd8)[0x20000bb63798]
[r232n17:109147] [ 2] /lib64/power9/libc.so.6(abort+0x164)[0x20000bb43bac]
[r232n17:109147] [ 3] /cineca/prod/opt/compilers/spectrum_mpi/10.4.0/binary/container/../lib/pami_port/libpami.so.3(_ZN4PAMI6Device3IBV11GpuDmaModelINS1_6DeviceELm1919EE13gpu_put_intraEPvmjmbS5_+0x814)[0x20000f2d4d84]
[r232n17:109147] [ 4] /cineca/prod/opt/compilers/spectrum_mpi/10.4.0/binary/container/../lib/pami_port/libpami.so.3(_ZN4PAMI8Protocol3Get14GpuGetOverSendINS_6Device3IBV14GpuPacketModelINS4_6DeviceELb0EEENS4_11GpuDmaModelIS6_Lm1919EEEE14dispatch_intraEPvSB_mSB_SB_+0x4c)[0x20000f2d50cc]
[r232n17:109147] [ 5] /cineca/prod/opt/compilers/spectrum_mpi/10.4.0/binary/container/../lib/pami_port/libpami.so.3(PAMI_Context_advancev+0x994)[0x20000f25a1b4]
[r232n17:109147] [ 6] /cineca/prod/opt/compilers/spectrum_mpi/10.4.0/binary/container/../lib/spectrum_mpi/mca_pml_pami.so(mca_pml_pami_progress_wait+0x190)[0x20000e0877d0]
[r232n17:109147] [ 7] /cineca/prod/opt/compilers/spectrum_mpi/10.4.0/binary/container/../lib/spectrum_mpi/mca_pml_pami.so(mca_pml_pami_send+0x238)[0x20000e0a6798]
[r232n17:109147] [ 8] /cineca/prod/opt/compilers/spectrum_mpi/10.4.0/binary/container/../lib/libmpi_ibm.so.3(PMPI_Send+0x170)[0x20000b7d6bb0]
[r232n17:109147] [ 9] /__SMPI_build_dir__________________________/ibmsrc/pami/ibm-pami/buildtools/pami_build_port/../pami/components/devices/ibvdevice/CudaIPCPool.h:314: 
Error opening IPC Eventhandle 
[r228n18:24384] *** Process received signal ***
[r228n18:24384] Signal: Aborted (6)
[r228n18:24384] Signal code:  (-6)
[r228n18:24384] [ 0] linux-vdso64.so.1(__kernel_sigtramp_rt64+0x0)[0x2000000504d8]
[r228n18:24384] [ 1] /lib64/power9/libc.so.6(gsignal+0xd8)[0x20000bb63798]
[r228n18:24384] [ 2] /lib64/power9/libc.so.6(abort+0x164)[0x20000bb43bac]
[r228n18:24384] [ 3] /cineca/prod/opt/compilers/spectrum_mpi/10.4.0/binary/container/../lib/pami_port/libpami.so.3(_ZN4PAMI6Device3IBV11GpuDmaModelINS1_6DeviceELm1919EE13gpu_put_intraEPvmjmbS5_+0x814)[0x20000f2d4d84]
[r228n18:24384] [ 4] /cineca/prod/opt/compilers/spectrum_mpi/10.4.0/binary/container/../lib/pami_port/libpami.so.3(_ZN4PAMI8Protocol3Get14GpuGetOverSendINS_6Device3IBV14GpuPacketModelINS4_6DeviceELb0EEENS4_11GpuDmaModelIS6_Lm1919EEEE14dispatch_intraEPvSB_mSB_SB_+0x4c)[0x20000f2d50cc]
[r228n18:24384] [ 5] /cineca/prod/opt/compilers/spectrum_mpi/10.4.0/binary/container/../lib/pami_port/libpami.so.3(PAMI_Context_advancev+0x994)[0x20000f25a1b4]
[r228n18:24384] [ 6] /cineca/prod/opt/compilers/spectrum_mpi/10.4.0/binary/container/../lib/spectrum_mpi/mca_pml_pami.so(mca_pml_pami_progress_wait+0x190)[0x20000e0877d0]
[r228n18:24384] [ 7] /cineca/prod/opt/compilers/spectrum_mpi/10.4.0/binary/container/../lib/spectrum_mpi/mca_pml_pami.so(mca_pml_pami_send+0x238)[0x20000e0a6798]
[r228n18:24384] [ 8] /cineca/prod/opt/compilers/spectrum_mpi/10.4.0/binary/container/../lib/libmpi_ibm.so.3(PMPI_Send+0x170)[0x20000b7d6bb0]
[r228n18:24384] [ 9] lmp_kokkos_cuda_mpi(_ZN9LAMMPS_NS10CommKokkos19forward_comm_deviceIN6Kokkos4CudaEEEvi+0x68c)[0x1124eaec]
[r232n17:109159] [10] lmp_kokkos_cuda_mpi(_ZN9LAMMPS_NS10CommKokkos19forward_comm_deviceIN6Kokkos4CudaEEEvi+0x68c)[0x1124eaec]
[r228n18:24384] [10] lmp_kokkos_cuda_mpi(_ZN9LAMMPS_NS10CommKokkos19forward_comm_deviceIN6Kokkos4CudaEEEvi+0x68c)[0x1124eaec]
[r232n17:109145] [10] lmp_kokkos_cuda_mpi(_ZN9LAMMPS_NS10CommKokkos19forward_comm_deviceIN6Kokkos4CudaEEEvi+0x68c)[0x1124eaec]
[r228n18:24395] [10] lmp_kokkos_cuda_mpi(_ZN9LAMMPS_NS10CommKokkos19forward_comm_deviceIN6Kokkos4CudaEEEvi+0x68c)[0x1124eaec]
[r232n17:109151] [10] lmp_kokkos_cuda_mpi(_ZN9LAMMPS_NS5Input4fileEv+0x2b0)[0x1091d3b0]
[r228n18:24389] [15] lmp_kokkos_cuda_mpi(_ZN9LAMMPS_NS10CommKokkos19forward_comm_deviceIN6Kokkos4CudaEEEvi+0x68c)[0x1124eaec]
[r232n17:109157] [10] lmp_kokkos_cuda_mpi(main+0x6c)[0x1086af4c]
[r228n18:24388] [16] /lib64/power9/libc.so.6(+0x241f8)[0x20000bb441f8]
[r228n18:24388] [17] lmp_kokkos_cuda_mpi(_ZN9LAMMPS_NS10CommKokkos19forward_comm_deviceIN6Kokkos4CudaEEEvi+0x68c)[0x1124eaec]
[r232n17:109147] [10] /lib64/power9/libc.so.6(__libc_start_main+0xb4)[0x20000bb443e4]
[r228n18:24388] *** End of error message ***
lmp_kokkos_cuda_mpi(_ZN9LAMMPS_NS10CommKokkos19forward_comm_deviceIN6Kokkos4CudaEEEvi+0x68c)[0x1124eaec]
[r232n17:109153] [10] lmp_kokkos_cuda_mpi(_ZN9LAMMPS_NS5Input4fileEv+0x2b0)[0x1091d3b0]
[r228n18:24392] [15] lmp_kokkos_cuda_mpi(_ZN9LAMMPS_NS10CommKokkos19forward_comm_deviceIN6Kokkos4CudaEEEvi+0x68c)[0x1124eaec]
[r232n17:109150] [10] lmp_kokkos_cuda_mpi(_ZN9LAMMPS_NS5Input4fileEv+0x2b0)[0x1091d3b0]
[r228n18:24379] [15] lmp_kokkos_cuda_mpi(_ZN9LAMMPS_NS10CommKokkos12forward_commEi+0x38)[0x11249888]
[r232n17:109150] [11] lmp_kokkos_cuda_mpi(_ZN9LAMMPS_NS10CommKokkos12forward_commEi+0x38)[0x11249888]
[r228n18:24384] [11] lmp_kokkos_cuda_mpi(_ZN9LAMMPS_NS10CommKokkos12forward_commEi+0x38)[0x11249888]
[r232n17:109145] [11] lmp_kokkos_cuda_mpi(_ZN9LAMMPS_NS10CommKokkos12forward_commEi+0x38)[0x11249888]
[r228n18:24395] [11] lmp_kokkos_cuda_mpi(_ZN9LAMMPS_NS10CommKokkos12forward_commEi+0x38)[0x11249888]
[r232n17:109151] [11] lmp_kokkos_cuda_mpi(main+0x6c)[0x1086af4c]
[r228n18:24389] [16] lmp_kokkos_cuda_mpi(_ZN9LAMMPS_NS10CommKokkos12forward_commEi+0x38)[0x11249888]
[r232n17:109157] [11] /lib64/power9/libc.so.6(+0x241f8)[0x20000bb441f8]
[r228n18:24389] [17] /lib64/power9/libc.so.6(__libc_start_main+0xb4)[0x20000bb443e4]
[r228n18:24389] *** End of error message ***
lmp_kokkos_cuda_mpi(_ZN9LAMMPS_NS10CommKokkos12forward_commEi+0x38)[0x11249888]
[r232n17:109159] [11] lmp_kokkos_cuda_mpi(main+0x6c)[0x1086af4c]
[r228n18:24392] [16] /lib64/power9/libc.so.6(+0x241f8)[0x20000bb441f8]
[r228n18:24392] lmp_kokkos_cuda_mpi(_ZN9LAMMPS_NS10CommKokkos19forward_comm_deviceIN6Kokkos4CudaEEEvi+0x68c)[0x1124eaec]
[r232n17:109154] [10] lmp_kokkos_cuda_mpi(_ZN9LAMMPS_NS10CommKokkos12forward_commEi+0x38)[0x11249888]
[r232n17:109154] [11] lmp_kokkos_cuda_mpi(main+0x6c)[0x1086af4c]
[r228n18:24379] [16] /lib64/power9/libc.so.6(+0x241f8)[0x20000bb441f8]
[r228n18:24379] [17] lmp_kokkos_cuda_mpi(_ZN9LAMMPS_NS10CommKokkos12forward_commEi+0x38)[0x11249888]
[r232n17:109147] [11] [17] /lib64/power9/libc.so.6(__libc_start_main+0xb4)[0x20000bb443e4]
[r228n18:24392] *** End of error message ***
lmp_kokkos_cuda_mpi(_ZN9LAMMPS_NS10CommKokkos12forward_commEi+0x38)[0x11249888]
[r232n17:109153] [11] /lib64/power9/libc.so.6(__libc_start_main+0xb4)[0x20000bb443e4]
[r228n18:24379] *** End of error message ***
lmp_kokkos_cuda_mpi(_ZN9LAMMPS_NS12VerletKokkos3runEi+0x156c)[0x12b4485c]
[r232n17:109145] [12] lmp_kokkos_cuda_mpi(_ZN9LAMMPS_NS12VerletKokkos3runEi+0x156c)[0x12b4485c]
[r228n18:24384] [12] lmp_kokkos_cuda_mpi(_ZN9LAMMPS_NS12VerletKokkos3runEi+0x156c)[0x12b4485c]
[r232n17:109151] [12] lmp_kokkos_cuda_mpi(_ZN9LAMMPS_NS12VerletKokkos3runEi+0x156c)[0x12b4485c]
[r228n18:24395] [12] lmp_kokkos_cuda_mpi(_ZN9LAMMPS_NS12VerletKokkos3runEi+0x156c)[0x12b4485c]
[r232n17:109157] [12] lmp_kokkos_cuda_mpi(_ZN9LAMMPS_NS3Run7commandEiPPc+0x1544)[0x109814d4]
[r228n18:24384] [13] lmp_kokkos_cuda_mpi(_ZN9LAMMPS_NS12VerletKokkos3runEi+0x156c)[0x12b4485c]
[r232n17:109159] [12] lmp_kokkos_cuda_mpi(_ZN9LAMMPS_NS5Input15execute_commandEv+0x2bf0)[0x1091c6f0]
[r228n18:24384] [14] lmp_kokkos_cuda_mpi(_ZN9LAMMPS_NS12VerletKokkos3runEi+0x156c)[0x12b4485c]
[r232n17:109153] [12] lmp_kokkos_cuda_mpi(_ZN9LAMMPS_NS3Run7commandEiPPc+0x1544)[0x109814d4]
[r228n18:24395] [13] lmp_kokkos_cuda_mpi(_ZN9LAMMPS_NS12VerletKokkos3runEi+0x156c)[0x12b4485c]
[r232n17:109150] [12] lmp_kokkos_cuda_mpi(_ZN9LAMMPS_NS5Input4fileEv+0x2b0)[0x1091d3b0]
[r228n18:24384] [15] lmp_kokkos_cuda_mpi(_ZN9LAMMPS_NS12VerletKokkos3runEi+0x156c)[0x12b4485c]
[r232n17:109154] [12] lmp_kokkos_cuda_mpi(main+0x6c)[0x1086af4c]
[r228n18:24384] [16] /lib64/power9/libc.so.6(+0x241f8)[0x20000bb441f8]
[r228n18:24384] [17] lmp_kokkos_cuda_mpi(_ZN9LAMMPS_NS12VerletKokkos3runEi+0x156c)[0x12b4485c]
[r232n17:109147] [12] /lib64/power9/libc.so.6(__libc_start_main+0xb4)[0x20000bb443e4]
[r228n18:24384] *** End of error message ***
lmp_kokkos_cuda_mpi(_ZN9LAMMPS_NS3Run7commandEiPPc+0x1544)[0x109814d4]
[r232n17:109159] [13] lmp_kokkos_cuda_mpi(_ZN9LAMMPS_NS5Input15execute_commandEv+0x2bf0)[0x1091c6f0]
[r228n18:24395] [14] lmp_kokkos_cuda_mpi(_ZN9LAMMPS_NS3Run7commandEiPPc+0x1544)[0x109814d4]
[r232n17:109145] [13] lmp_kokkos_cuda_mpi(_ZN9LAMMPS_NS5Input4fileEv+0x2b0)[0x1091d3b0]
[r228n18:24395] [15] lmp_kokkos_cuda_mpi(_ZN9LAMMPS_NS3Run7commandEiPPc+0x1544)[0x109814d4]
[r232n17:109154] [13] lmp_kokkos_cuda_mpi(main+0x6c)[0x1086af4c]
[r228n18:24395] [16] /lib64/power9/libc.so.6(+0x241f8)[0x20000bb441f8]
[r228n18:24395] lmp_kokkos_cuda_mpi(_ZN9LAMMPS_NS3Run7commandEiPPc+0x1544)[0x109814d4]
[r232n17:109153] [13] [17] /lib64/power9/libc.so.6(__libc_start_main+0xb4)[0x20000bb443e4]
[r228n18:24395] *** End of error message ***
lmp_kokkos_cuda_mpi(_ZN9LAMMPS_NS3Run7commandEiPPc+0x1544)[0x109814d4]
[r232n17:109151] [13] lmp_kokkos_cuda_mpi(_ZN9LAMMPS_NS3Run7commandEiPPc+0x1544)[0x109814d4]
[r232n17:109157] [13] lmp_kokkos_cuda_mpi(_ZN9LAMMPS_NS3Run7commandEiPPc+0x1544)[0x109814d4]
[r232n17:109150] [13] lmp_kokkos_cuda_mpi(_ZN9LAMMPS_NS5Input15execute_commandEv+0x2bf0)[0x1091c6f0]
[r232n17:109153] [14] lmp_kokkos_cuda_mpi(_ZN9LAMMPS_NS5Input4fileEv+0x2b0)[0x1091d3b0]
[r232n17:109153] [15] lmp_kokkos_cuda_mpi(_ZN9LAMMPS_NS5Input15execute_commandEv+0x2bf0)[0x1091c6f0]
[r232n17:109151] [14] lmp_kokkos_cuda_mpi(_ZN9LAMMPS_NS5Input15execute_commandEv+0x2bf0)[0x1091c6f0]
[r232n17:109157] [14] lmp_kokkos_cuda_mpi(_ZN9LAMMPS_NS5Input15execute_commandEv+0x2bf0)[0x1091c6f0]
[r232n17:109145] [14] lmp_kokkos_cuda_mpi(_ZN9LAMMPS_NS5Input4fileEv+0x2b0)[0x1091d3b0]
[r232n17:109145] [15] lmp_kokkos_cuda_mpi(_ZN9LAMMPS_NS5Input15execute_commandEv+0x2bf0)[0x1091c6f0]
[r232n17:109150] [14] lmp_kokkos_cuda_mpi(_ZN9LAMMPS_NS5Input15execute_commandEv+0x2bf0)[0x1091c6f0]
[r232n17:109154] [14] lmp_kokkos_cuda_mpi(_ZN9LAMMPS_NS5Input4fileEv+0x2b0)[0x1091d3b0]
[r232n17:109154] [15] lmp_kokkos_cuda_mpi(_ZN9LAMMPS_NS3Run7commandEiPPc+0x1544)[0x109814d4]
[r232n17:109147] [13] lmp_kokkos_cuda_mpi(_ZN9LAMMPS_NS5Input15execute_commandEv+0x2bf0)[0x1091c6f0]
[r232n17:109147] [14] lmp_kokkos_cuda_mpi(_ZN9LAMMPS_NS5Input15execute_commandEv+0x2bf0)[0x1091c6f0]
[r232n17:109159] [14] lmp_kokkos_cuda_mpi(_ZN9LAMMPS_NS5Input4fileEv+0x2b0)[0x1091d3b0]
[r232n17:109159] [15] lmp_kokkos_cuda_mpi(_ZN9LAMMPS_NS5Input4fileEv+0x2b0)[0x1091d3b0]
[r232n17:109157] [15] lmp_kokkos_cuda_mpi(_ZN9LAMMPS_NS5Input4fileEv+0x2b0)[0x1091d3b0]
[r232n17:109150] [15] lmp_kokkos_cuda_mpi(_ZN9LAMMPS_NS5Input4fileEv+0x2b0)[0x1091d3b0]
[r232n17:109147] [15] lmp_kokkos_cuda_mpi(main+0x6c)[0x1086af4c]
[r232n17:109154] [16] /lib64/power9/libc.so.6(+0x241f8)[0x20000bb441f8]
[r232n17:109154] lmp_kokkos_cuda_mpi(main+0x6c)[0x1086af4c]
[r232n17:109153] [16] /lib64/power9/libc.so.6(+0x241f8)[0x20000bb441f8]
[r232n17:109153] [17] /lib64/power9/libc.so.6(__libc_start_main+0xb4)[0x20000bb443e4]
[17] /lib64/power9/libc.so.6(__libc_start_main+0xb4)[0x20000bb443e4]
[r232n17:109154] *** End of error message ***
[r232n17:109153] *** End of error message ***
lmp_kokkos_cuda_mpi(main+0x6c)[0x1086af4c]
[r232n17:109159] [16] lmp_kokkos_cuda_mpi(main+0x6c)[0x1086af4c]
[r232n17:109145] [16] /lib64/power9/libc.so.6(+0x241f8)[0x20000bb441f8]
[r232n17:109145] [17] /lib64/power9/libc.so.6(__libc_start_main+0xb4)[0x20000bb443e4]
/lib64/power9/libc.so.6(+0x241f8)[0x20000bb441f8]
[r232n17:109159] [17] /lib64/power9/libc.so.6(__libc_start_main+0xb4)[0x20000bb443e4]
[r232n17:109159] *** End of error message ***
lmp_kokkos_cuda_mpi(main+0x6c)[0x1086af4c]
[r232n17:109157] [16] /lib64/power9/libc.so.6(+0x241f8)[0x20000bb441f8]
[r232n17:109157] [17] /lib64/power9/libc.so.6(__libc_start_main+0xb4)[0x20000bb443e4]
lmp_kokkos_cuda_mpi(main+0x6c)[0x1086af4c]
[r232n17:109150] [16] /lib64/power9/libc.so.6(+0x241f8)[0x20000bb441f8]
[r232n17:109150] [17] /lib64/power9/libc.so.6(__libc_start_main+0xb4)[0x20000bb443e4]
[r232n17:109150] *** End of error message ***
[r232n17:109145] *** End of error message ***
lmp_kokkos_cuda_mpi(main+0x6c)[0x1086af4c]
[r232n17:109147] [16] /lib64/power9/libc.so.6(+0x241f8)[0x20000bb441f8]
[r232n17:109147] [17] /lib64/power9/libc.so.6(__libc_start_main+0xb4)[0x20000bb443e4]
[r232n17:109147] *** End of error message ***
[r232n17:109157] *** End of error message ***
lmp_kokkos_cuda_mpi(_ZN9LAMMPS_NS5Input4fileEv+0x2b0)[0x1091d3b0]
[r232n17:109151] [15] lmp_kokkos_cuda_mpi(main+0x6c)[0x1086af4c]
[r232n17:109151] [16] /lib64/power9/libc.so.6(+0x241f8)[0x20000bb441f8]
[r232n17:109151] [17] /lib64/power9/libc.so.6(__libc_start_main+0xb4)[0x20000bb443e4]
[r232n17:109151] *** End of error message ***
--------------------------------------------------------------------------
Primary job  terminated normally, but 1 process returned
a non-zero exit code. Per user-direction, the job has been aborted.
--------------------------------------------------------------------------
--------------------------------------------------------------------------
mpirun noticed that process rank 74 with PID 109153 on node r232n17 exited on signal 6 (Aborted).
--------------------------------------------------------------------------
