LAMMPS (29 Sep 2021 - Update 1)
KOKKOS mode is enabled (../kokkos.cpp:97)
  will use up to 4 GPU(s) per node
terminate called after throwing an instance of 'std::runtime_error'
  what():  cudaGetDeviceCount(&m_cudaDevCount) error( cudaErrorNoDevice): no CUDA-capable device is detected ../../lib/kokkos/core/src/Cuda/Kokkos_Cuda_Instance.cpp:224
Traceback functionality not available

terminate called after throwing an instance of 'std::runtime_error'
terminate called after throwing an instance of 'std::runtime_error'
  what():  cudaGetDeviceCount(&m_cudaDevCount) error( cudaErrorNoDevice): no CUDA-capable device is detected ../../lib/kokkos/core/src/Cuda/Kokkos_Cuda_Instance.cpp:224
Traceback functionality not available

terminate called after throwing an instance of 'std::runtime_error'
  what():  cudaGetDeviceCount(&m_cudaDevCount) error( cudaErrorNoDevice): no CUDA-capable device is detected ../../lib/kokkos/core/src/Cuda/Kokkos_Cuda_Instance.cpp:224
Traceback functionality not available

[r228n17:50558] *** Process received signal ***
terminate called after throwing an instance of 'std::runtime_error'
terminate called after throwing an instance of 'std::runtime_error'
  what():  cudaGetDeviceCount(&m_cudaDevCount) error( cudaErrorNoDevice): no CUDA-capable device is detected ../../lib/kokkos/core/src/Cuda/Kokkos_Cuda_Instance.cpp:224
Traceback functionality not available

[r228n17:50567] *** Process received signal ***
[r228n17:50567] Signal: Aborted (6)
[r228n17:50567] Signal code:  (-6)
terminate called after throwing an instance of 'std::runtime_error'
  what():  cudaGetDeviceCount(&m_cudaDevCount) error( cudaErrorNoDevice): no CUDA-capable device is detected ../../lib/kokkos/core/src/Cuda/Kokkos_Cuda_Instance.cpp:224
Traceback functionality not available

[r228n17:50562] *** Process received signal ***
[r228n17:50562] Signal: Aborted (6)
[r228n17:50562] Signal code:  (-6)
[r228n17:50562] [ 0] linux-vdso64.so.1(__kernel_sigtramp_rt64+0x0)[0x2000000504d8]
[r228n17:50562] [ 1] /lib64/power9/libc.so.6(gsignal+0xd8)[0x20000bb63798]
[r228n17:50562] [ 2] /lib64/power9/libc.so.6(abort+0x164)[0x20000bb43bac]
[r228n17:50562] [ 3]   what():  cudaGetDeviceCount(&m_cudaDevCount) error( cudaErrorNoDevice): no CUDA-capable device is detected ../../lib/kokkos/core/src/Cuda/Kokkos_Cuda_Instance.cpp:224
Traceback functionality not available

[r228n17:50568] *** Process received signal ***
[r228n17:50568] Signal: Aborted (6)
[r228n17:50568] Signal code:  (-6)
[r228n17:50568] [ 0] linux-vdso64.so.1(__kernel_sigtramp_rt64+0x0)[0x2000000504d8]
[r228n17:50568] [ 1] /lib64/power9/libc.so.6(gsignal+0xd8)[0x20000bb63798]
[r228n17:50568] [ 2] terminate called after throwing an instance of 'std::runtime_error'
terminate called after throwing an instance of 'std::runtime_error'
  what():  cudaGetDeviceCount(&m_cudaDevCount) error( cudaErrorNoDevice): no CUDA-capable device is detected ../../lib/kokkos/core/src/Cuda/Kokkos_Cuda_Instance.cpp:224
Traceback functionality not available

[r228n17:50570] *** Process received signal ***
[r228n17:50570] Signal: Aborted (6)
[r228n17:50570] Signal code:  (-6)
[r228n17:50570] [ 0] [r228n17:50569] *** Process received signal ***
[r228n17:50569] Signal: Aborted (6)
[r228n17:50569] Signal code:  (-6)
[r228n17:50569] [ 0] linux-vdso64.so.1(__kernel_sigtramp_rt64+0x0)[0x2000000504d8]
[r228n17:50569] [ 1] /lib64/power9/libc.so.6(gsignal+0xd8)[0x20000bb63798]
[r228n17:50569] [ 2] /lib64/power9/libc.so.6(abort+0x164)[0x20000bb43bac]
[r228n17:50569] [ 3] [r228n17:50567] [ 0] linux-vdso64.so.1(__kernel_sigtramp_rt64+0x0)[0x2000000504d8]
[r228n17:50567] [ 1] /lib64/power9/libc.so.6(gsignal+0xd8)[0x20000bb63798]
[r228n17:50567] [ 2] /lib64/power9/libc.so.6(abort+0x164)[0x20000bb43bac]
[r228n17:50567] [ 3] terminate called after throwing an instance of 'std::runtime_error'
  what():  cudaGetDeviceCount(&m_cudaDevCount) error( cudaErrorNoDevice): no CUDA-capable device is detected ../../lib/kokkos/core/src/Cuda/Kokkos_Cuda_Instance.cpp:224
Traceback functionality not available

[r228n17:50545] *** Process received signal ***
[r228n17:50545] Signal: Aborted (6)
[r228n17:50545] Signal code:  (-6)
[r228n17:50545] [ 0] linux-vdso64.so.1(__kernel_sigtramp_rt64+0x0)[0x2000000504d8]
[r228n17:50545] [ 1] /lib64/power9/libc.so.6(gsignal+0xd8)[0x20000bb63798]
[r228n17:50545] [ 2] /lib64/power9/libc.so.6(abort+0x164)[0x20000bb43bac]
[r228n17:50545] [ 3] terminate called after throwing an instance of 'std::runtime_error'
  what():  cudaGetDeviceCount(&m_cudaDevCount) error( cudaErrorNoDevice): no CUDA-capable device is detected ../../lib/kokkos/core/src/Cuda/Kokkos_Cuda_Instance.cpp:224
Traceback functionality not available

[r228n17:50550] *** Process received signal ***
[r228n17:50550] Signal: Aborted (6)
[r228n17:50550] Signal code:  (-6)
[r228n17:50550] [ 0] terminate called after throwing an instance of 'std::runtime_error'
  what():  cudaGetDeviceCount(&m_cudaDevCount) error( cudaErrorNoDevice): no CUDA-capable device is detected ../../lib/kokkos/core/src/Cuda/Kokkos_Cuda_Instance.cpp:224
Traceback functionality not available

[r228n17:50559] *** Process received signal ***
[r228n17:50559] Signal: Aborted (6)
[r228n17:50559] Signal code:  (-6)
[r228n17:50559] [ 0] linux-vdso64.so.1(__kernel_sigtramp_rt64+0x0)[0x2000000504d8]
[r228n17:50559] [ 1] /lib64/power9/libc.so.6(gsignal+0xd8)[0x20000bb63798]
[r228n17:50559] [ 2] [r228n17:50546] *** Process received signal ***
[r228n17:50546] Signal: Aborted (6)
[r228n17:50546] Signal code:  (-6)
[r228n17:50546] [ 0] linux-vdso64.so.1(__kernel_sigtramp_rt64+0x0)[0x2000000504d8]
[r228n17:50546] [ 1] /lib64/power9/libc.so.6(gsignal+0xd8)[0x20000bb63798]
[r228n17:50546] [ 2] /lib64/power9/libc.so.6(abort+0x164)[0x20000bb43bac]
[r228n17:50546] [ 3]   what():  cudaGetDeviceCount(&m_cudaDevCount) error( cudaErrorNoDevice): no CUDA-capable device is detected ../../lib/kokkos/core/src/Cuda/Kokkos_Cuda_Instance.cpp:224
Traceback functionality not available

[r228n17:50566] *** Process received signal ***
[r228n17:50566] Signal: Aborted (6)
[r228n17:50566] Signal code:  (-6)
[r228n17:50566] [ 0] linux-vdso64.so.1(__kernel_sigtramp_rt64+0x0)[0x2000000504d8]
[r228n17:50566] [ 1] /lib64/power9/libc.so.6(gsignal+0xd8)[0x20000bb63798]
[r228n17:50566] [ 2] /lib64/power9/libc.so.6(abort+0x164)[0x20000bb43bac]
[r228n17:50566] [ 3] [r228n17:50558] Signal: Aborted (6)
[r228n17:50558] Signal code:  (-6)
[r228n17:50558] [ 0] linux-vdso64.so.1(__kernel_sigtramp_rt64+0x0)[0x2000000504d8]
[r228n17:50558] [ 1] /lib64/power9/libc.so.6(gsignal+0xd8)[0x20000bb63798]
[r228n17:50558] [ 2] /lib64/power9/libc.so.6(abort+0x164)[0x20000bb43bac]
[r228n17:50558] [ 3] /cineca/prod/opt/compilers/gnu/8.4.0/none/lib64/libstdc++.so.6(_ZN9__gnu_cxx27__verbose_terminate_handlerEv+0x158)[0x20000b32bd38]
[r228n17:50545] [ 4] terminate called after throwing an instance of 'std::runtime_error'
  what():  cudaGetDeviceCount(&m_cudaDevCount) error( cudaErrorNoDevice): no CUDA-capable device is detected ../../lib/kokkos/core/src/Cuda/Kokkos_Cuda_Instance.cpp:224
Traceback functionality not available

[r228n17:50554] *** Process received signal ***
[r228n17:50554] Signal: Aborted (6)
[r228n17:50554] Signal code:  (-6)
[r228n17:50554] [ 0] linux-vdso64.so.1(__kernel_sigtramp_rt64+0x0)[0x2000000504d8]
[r228n17:50554] [ 1] /lib64/power9/libc.so.6(gsignal+0xd8)[0x20000bb63798]
[r228n17:50554] [ 2] terminate called after throwing an instance of 'std::runtime_error'
  what():  cudaGetDeviceCount(&m_cudaDevCount) error( cudaErrorNoDevice): no CUDA-capable device is detected ../../lib/kokkos/core/src/Cuda/Kokkos_Cuda_Instance.cpp:224
Traceback functionality not available

linux-vdso64.so.1(__kernel_sigtramp_rt64+0x0)[0x2000000504d8]
[r228n17:50550] [ 1] /lib64/power9/libc.so.6(gsignal+0xd8)[0x20000bb63798]
[r228n17:50550] [ 2] /lib64/power9/libc.so.6(abort+0x164)[0x20000bb43bac]
[r228n17:50550] [ 3] /lib64/power9/libc.so.6(abort+0x164)[0x20000bb43bac]
[r228n17:50559] [ 3] /cineca/prod/opt/compilers/gnu/8.4.0/none/lib64/libstdc++.so.6(_ZN9__gnu_cxx27__verbose_terminate_handlerEv+0x158)[0x20000b32bd38]
[r228n17:50559] [ 4] /cineca/prod/opt/compilers/gnu/8.4.0/none/lib64/libstdc++.so.6(_ZN9__gnu_cxx27__verbose_terminate_handlerEv+0x158)[0x20000b32bd38]
[r228n17:50546] [ 4] /cineca/prod/opt/compilers/gnu/8.4.0/none/lib64/libstdc++.so.6(+0xb6c44)[0x20000b326c44]
[r228n17:50546] [ 5] /cineca/prod/opt/compilers/gnu/8.4.0/none/lib64/libstdc++.so.6(_ZN9__gnu_cxx27__verbose_terminate_handlerEv+0x158)[0x20000b32bd38]
[r228n17:50566] [ 4] /cineca/prod/opt/compilers/gnu/8.4.0/none/lib64/libstdc++.so.6(+0xb6c44)[0x20000b326c44]
[r228n17:50566] linux-vdso64.so.1(__kernel_sigtramp_rt64+0x0)[0x2000000504d8]
[r228n17:50570] [ 1] /lib64/power9/libc.so.6(gsignal+0xd8)[0x20000bb63798]
[r228n17:50570] [ 2] /lib64/power9/libc.so.6(abort+0x164)[0x20000bb43bac]
[r228n17:50570] [ 3] /cineca/prod/opt/compilers/gnu/8.4.0/none/lib64/libstdc++.so.6(_ZN9__gnu_cxx27__verbose_terminate_handlerEv+0x158)[0x20000b32bd38]
[r228n17:50570] [ 4] /cineca/prod/opt/compilers/gnu/8.4.0/none/lib64/libstdc++.so.6(_ZN9__gnu_cxx27__verbose_terminate_handlerEv+0x158)[0x20000b32bd38]
[r228n17:50562] [ 4] /cineca/prod/opt/compilers/gnu/8.4.0/none/lib64/libstdc++.so.6(+0xb6c44)[0x20000b326c44]
[r228n17:50562] [ 5] /lib64/power9/libc.so.6(abort+0x164)[0x20000bb43bac]
[r228n17:50568] [ 3] /cineca/prod/opt/compilers/gnu/8.4.0/none/lib64/libstdc++.so.6(_ZN9__gnu_cxx27__verbose_terminate_handlerEv+0x158)[0x20000b32bd38]
[r228n17:50568] [ 4]   what():  cudaGetDeviceCount(&m_cudaDevCount) error( cudaErrorNoDevice): no CUDA-capable device is detected ../../lib/kokkos/core/src/Cuda/Kokkos_Cuda_Instance.cpp:224
Traceback functionality not available

[r228n17:50571] *** Process received signal ***
[r228n17:50571] Signal: Aborted (6)
[r228n17:50571] Signal code:  (-6)
[r228n17:50571] [ 0] linux-vdso64.so.1(__kernel_sigtramp_rt64+0x0)[0x2000000504d8]
[r228n17:50571] [ 1] /lib64/power9/libc.so.6(gsignal+0xd8)[0x20000bb63798]
[r228n17:50571] [ 2] /lib64/power9/libc.so.6(abort+0x164)[0x20000bb43bac]
[r228n17:50571] [ 3] /cineca/prod/opt/compilers/gnu/8.4.0/none/lib64/libstdc++.so.6(_ZN9__gnu_cxx27__verbose_terminate_handlerEv+0x158)[0x20000b32bd38]
[r228n17:50558] [ 4] /cineca/prod/opt/compilers/gnu/8.4.0/none/lib64/libstdc++.so.6(+0xb6c44)[0x20000b326c44]
[r228n17:50558] [ 5] /cineca/prod/opt/compilers/gnu/8.4.0/none/lib64/libstdc++.so.6(_ZN9__gnu_cxx27__verbose_terminate_handlerEv+0x158)[0x20000b32bd38]
[r228n17:50569] [ 4] /cineca/prod/opt/compilers/gnu/8.4.0/none/lib64/libstdc++.so.6(+0xb6c44)[0x20000b326c44]
[r228n17:50569] [ 5] terminate called after throwing an instance of 'std::runtime_error'
  what():  cudaGetDeviceCount(&m_cudaDevCount) error( cudaErrorNoDevice): no CUDA-capable device is detected ../../lib/kokkos/core/src/Cuda/Kokkos_Cuda_Instance.cpp:224
Traceback functionality not available

[r228n17:50542] *** Process received signal ***
[r228n17:50542] Signal: Aborted (6)
[r228n17:50542] Signal code:  (-6)
[r228n17:50542] [ 0] linux-vdso64.so.1(__kernel_sigtramp_rt64+0x0)[0x2000000504d8]
[r228n17:50542] [ 1] /cineca/prod/opt/compilers/gnu/8.4.0/none/lib64/libstdc++.so.6(_ZN9__gnu_cxx27__verbose_terminate_handlerEv+0x158)[0x20000b32bd38]
[r228n17:50567] [ 4] /cineca/prod/opt/compilers/gnu/8.4.0/none/lib64/libstdc++.so.6(+0xb6c44)[0x20000b326c44]
[r228n17:50567] [ 5] terminate called after throwing an instance of 'std::runtime_error'
  what():  cudaGetDeviceCount(&m_cudaDevCount) error( cudaErrorNoDevice): no CUDA-capable device is detected ../../lib/kokkos/core/src/Cuda/Kokkos_Cuda_Instance.cpp:224
Traceback functionality not available

[r228n17:50549] *** Process received signal ***
[r228n17:50549] Signal: Aborted (6)
[r228n17:50549] Signal code:  (-6)
[r228n17:50549] [ 0] linux-vdso64.so.1(__kernel_sigtramp_rt64+0x0)[0x2000000504d8]
[r228n17:50549] [ 1] /lib64/power9/libc.so.6(gsignal+0xd8)[0x20000bb63798]
[r228n17:50549] [ 2] /cineca/prod/opt/compilers/gnu/8.4.0/none/lib64/libstdc++.so.6(_ZSt9terminatev+0x20)[0x20000b326d00]
[r228n17:50562] [ 6] /cineca/prod/opt/compilers/gnu/8.4.0/none/lib64/libstdc++.so.6(__cxa_throw+0x7c)[0x20000b3271dc]
[r228n17:50562] [ 7] /cineca/prod/opt/compilers/gnu/8.4.0/none/lib64/libstdc++.so.6(+0xb6c44)[0x20000b326c44]
[r228n17:50568] [ 5] /lib64/power9/libc.so.6(abort+0x164)[0x20000bb43bac]
[r228n17:50549] [ 3] /cineca/prod/opt/compilers/gnu/8.4.0/none/lib64/libstdc++.so.6(_ZN9__gnu_cxx27__verbose_terminate_handlerEv+0x158)[0x20000b32bd38]
[r228n17:50549] [ 4] /cineca/prod/opt/compilers/gnu/8.4.0/none/lib64/libstdc++.so.6(_ZSt9terminatev+0x20)[0x20000b326d00]
[r228n17:50558] [ 6] /cineca/prod/opt/compilers/gnu/8.4.0/none/lib64/libstdc++.so.6(__cxa_throw+0x7c)[0x20000b3271dc]
[r228n17:50558] [ 7] /cineca/prod/opt/compilers/gnu/8.4.0/none/lib64/libstdc++.so.6(_ZSt9terminatev+0x20)[0x20000b326d00]
[r228n17:50569] [ 6] /cineca/prod/opt/compilers/gnu/8.4.0/none/lib64/libstdc++.so.6(__cxa_throw+0x7c)[0x20000b3271dc]
[r228n17:50569] [ 7] terminate called after throwing an instance of 'std::runtime_error'
  what():  cudaGetDeviceCount(&m_cudaDevCount) error( cudaErrorNoDevice): no CUDA-capable device is detected ../../lib/kokkos/core/src/Cuda/Kokkos_Cuda_Instance.cpp:224
Traceback functionality not available

/lib64/power9/libc.so.6(gsignal+0xd8)[0x20000bb63798]
[r228n17:50542] [ 2] /lib64/power9/libc.so.6(abort+0x164)[0x20000bb43bac]
[r228n17:50542] [ 3] /cineca/prod/opt/compilers/gnu/8.4.0/none/lib64/libstdc++.so.6(_ZN9__gnu_cxx27__verbose_terminate_handlerEv+0x158)[0x20000b32bd38]
[r228n17:50542] [ 4] /cineca/prod/opt/compilers/gnu/8.4.0/none/lib64/libstdc++.so.6(_ZSt9terminatev+0x20)[0x20000b326d00]
[r228n17:50567] [ 6] /cineca/prod/opt/compilers/gnu/8.4.0/none/lib64/libstdc++.so.6(__cxa_throw+0x7c)[0x20000b3271dc]
[r228n17:50567] [ 7] /cineca/prod/opt/compilers/gnu/8.4.0/none/lib64/libstdc++.so.6(_ZN9__gnu_cxx27__verbose_terminate_handlerEv+0x158)[0x20000b32bd38]
[r228n17:50571] [ 4] /cineca/prod/opt/compilers/gnu/8.4.0/none/lib64/libstdc++.so.6(+0xb6c44)[0x20000b326c44]
[r228n17:50571] [ 5] /cineca/prod/opt/compilers/gnu/8.4.0/none/lib64/libstdc++.so.6(_ZSt9terminatev+0x20)[0x20000b326d00]
[r228n17:50571] [ 6] terminate called after throwing an instance of 'std::runtime_error'
  what():  cudaGetDeviceCount(&m_cudaDevCount) error( cudaErrorNoDevice): no CUDA-capable device is detected ../../lib/kokkos/core/src/Cuda/Kokkos_Cuda_Instance.cpp:224
Traceback functionality not available

[r228n17:50556] *** Process received signal ***
[r228n17:50556] Signal: Aborted (6)
[r228n17:50556] Signal code:  (-6)
/cineca/prod/opt/compilers/gnu/8.4.0/none/lib64/libstdc++.so.6(+0xb6c44)[0x20000b326c44]
[r228n17:50545] [ 5] /cineca/prod/opt/compilers/gnu/8.4.0/none/lib64/libstdc++.so.6(_ZSt9terminatev+0x20)[0x20000b326d00]
[r228n17:50545] [ 6] /cineca/prod/opt/compilers/gnu/8.4.0/none/lib64/libstdc++.so.6(__cxa_throw+0x7c)[0x20000b3271dc]
[r228n17:50545] [ 7] terminate called after throwing an instance of 'std::runtime_error'
  what():  cudaGetDeviceCount(&m_cudaDevCount) error( cudaErrorNoDevice): no CUDA-capable device is detected ../../lib/kokkos/core/src/Cuda/Kokkos_Cuda_Instance.cpp:224
Traceback functionality not available

[r228n17:50561] *** Process received signal ***
[r228n17:50561] Signal: Aborted (6)
[r228n17:50561] Signal code:  (-6)
[r228n17:50561] [ 0] linux-vdso64.so.1(__kernel_sigtramp_rt64+0x0)[0x2000000504d8]
[r228n17:50561] [ 1] /lib64/power9/libc.so.6(gsignal+0xd8)[0x20000bb63798]
[r228n17:50561] [ 2] /lib64/power9/libc.so.6(abort+0x164)[0x20000bb43bac]
[r228n17:50561] [ 3] /lib64/power9/libc.so.6(abort+0x164)[0x20000bb43bac]
[r228n17:50554] [ 3] /cineca/prod/opt/compilers/gnu/8.4.0/none/lib64/libstdc++.so.6(_ZN9__gnu_cxx27__verbose_terminate_handlerEv+0x158)[0x20000b32bd38]
[r228n17:50554] [ 4] /cineca/prod/opt/compilers/gnu/8.4.0/none/lib64/libstdc++.so.6(+0xb6c44)[0x20000b326c44]
[r228n17:50554] [ 5] /cineca/prod/opt/compilers/gnu/8.4.0/none/lib64/libstdc++.so.6(_ZSt9terminatev+0x20)[0x20000b326d00]
[r228n17:50554] [ 6] [r228n17:50560] *** Process received signal ***
[r228n17:50560] Signal: Aborted (6)
[r228n17:50560] Signal code:  (-6)
[r228n17:50560] [ 0] linux-vdso64.so.1(__kernel_sigtramp_rt64+0x0)[0x2000000504d8]
[r228n17:50560] [ 1] /lib64/power9/libc.so.6(gsignal+0xd8)[0x20000bb63798]
[r228n17:50560] [ 2] /lib64/power9/libc.so.6(abort+0x164)[0x20000bb43bac]
[r228n17:50560] [ 3] /cineca/prod/opt/compilers/gnu/8.4.0/none/lib64/libstdc++.so.6(_ZN9__gnu_cxx27__verbose_terminate_handlerEv+0x158)[0x20000b32bd38]
[r228n17:50550] [ 4] /cineca/prod/opt/compilers/gnu/8.4.0/none/lib64/libstdc++.so.6(+0xb6c44)[0x20000b326c44]
[r228n17:50550] [ 5] /cineca/prod/opt/compilers/gnu/8.4.0/none/lib64/libstdc++.so.6(_ZSt9terminatev+0x20)[0x20000b326d00]
[r228n17:50550] [ 6] /cineca/prod/opt/compilers/gnu/8.4.0/none/lib64/libstdc++.so.6(__cxa_throw+0x7c)[0x20000b3271dc]
[r228n17:50550] [ 7] terminate called after throwing an instance of 'std::runtime_error'
  what():  cudaGetDeviceCount(&m_cudaDevCount) error( cudaErrorNoDevice): no CUDA-capable device is detected ../../lib/kokkos/core/src/Cuda/Kokkos_Cuda_Instance.cpp:224
Traceback functionality not available

[r228n17:50565] *** Process received signal ***
[r228n17:50565] Signal: Aborted (6)
[r228n17:50565] Signal code:  (-6)
[r228n17:50565] [ 0] linux-vdso64.so.1(__kernel_sigtramp_rt64+0x0)[0x2000000504d8]
[r228n17:50565] [ 1] /lib64/power9/libc.so.6(gsignal+0xd8)[0x20000bb63798]
[r228n17:50565] [ 2] /lib64/power9/libc.so.6(abort+0x164)[0x20000bb43bac]
[r228n17:50565] [ 3] terminate called after throwing an instance of 'std::runtime_error'
  what():  cudaGetDeviceCount(&m_cudaDevCount) error( cudaErrorNoDevice): no CUDA-capable device is detected ../../lib/kokkos/core/src/Cuda/Kokkos_Cuda_Instance.cpp:224
Traceback functionality not available

[r228n17:50563] *** Process received signal ***
[r228n17:50563] Signal: Aborted (6)
[r228n17:50563] Signal code:  (-6)
[r228n17:50563] [ 0] linux-vdso64.so.1(__kernel_sigtramp_rt64+0x0)[0x2000000504d8]
[r228n17:50563] [ 1] /lib64/power9/libc.so.6(gsignal+0xd8)[0x20000bb63798]
[r228n17:50563] [ 2] /lib64/power9/libc.so.6(abort+0x164)[0x20000bb43bac]
[r228n17:50563] [ 3] /cineca/prod/opt/compilers/gnu/8.4.0/none/lib64/libstdc++.so.6(_ZN9__gnu_cxx27__verbose_terminate_handlerEv+0x158)[0x20000b32bd38]
[r228n17:50563] [ 4] terminate called after throwing an instance of 'std::runtime_error'
  what():  cudaGetDeviceCount(&m_cudaDevCount) error( cudaErrorNoDevice): no CUDA-capable device is detected ../../lib/kokkos/core/src/Cuda/Kokkos_Cuda_Instance.cpp:224
Traceback functionality not available

[r228n17:50564] *** Process received signal ***
[r228n17:50564] Signal: Aborted (6)
[r228n17:50564] Signal code:  (-6)
/cineca/prod/opt/compilers/gnu/8.4.0/none/lib64/libstdc++.so.6(+0xb6c44)[0x20000b326c44]
[r228n17:50559] [ 5] /cineca/prod/opt/compilers/gnu/8.4.0/none/lib64/libstdc++.so.6(_ZSt9terminatev+0x20)[0x20000b326d00]
[r228n17:50559] [ 6] /cineca/prod/opt/compilers/gnu/8.4.0/none/lib64/libstdc++.so.6(__cxa_throw+0x7c)[0x20000b3271dc]
[r228n17:50559] [ 7] /cineca/prod/opt/compilers/gnu/8.4.0/none/lib64/libstdc++.so.6(_ZSt9terminatev+0x20)[0x20000b326d00]
[r228n17:50546] [ 6] /cineca/prod/opt/compilers/gnu/8.4.0/none/lib64/libstdc++.so.6(__cxa_throw+0x7c)[0x20000b3271dc]
[r228n17:50546] [ 7] [ 5] /cineca/prod/opt/compilers/gnu/8.4.0/none/lib64/libstdc++.so.6(_ZSt9terminatev+0x20)[0x20000b326d00]
[r228n17:50566] [ 6] /cineca/prod/opt/compilers/gnu/8.4.0/none/lib64/libstdc++.so.6(__cxa_throw+0x7c)[0x20000b3271dc]
[r228n17:50566] [ 7] /cineca/prod/opt/compilers/gnu/8.4.0/none/lib64/libstdc++.so.6(+0xb6c44)[0x20000b326c44]
[r228n17:50570] [ 5] /cineca/prod/opt/compilers/gnu/8.4.0/none/lib64/libstdc++.so.6(_ZSt9terminatev+0x20)[0x20000b326d00]
[r228n17:50570] [ 6] /cineca/prod/opt/compilers/gnu/8.4.0/none/lib64/libstdc++.so.6(__cxa_throw+0x7c)[0x20000b3271dc]
[r228n17:50570] [ 7] terminate called after throwing an instance of 'std::runtime_error'
  what():  cudaGetDeviceCount(&m_cudaDevCount) error( cudaErrorNoDevice): no CUDA-capable device is detected ../../lib/kokkos/core/src/Cuda/Kokkos_Cuda_Instance.cpp:224
Traceback functionality not available

[r232n18:13474] *** Process received signal ***
[r232n18:13474] Signal: Aborted (6)
[r232n18:13474] Signal code:  (-6)
[r232n18:13474] [ 0] linux-vdso64.so.1(__kernel_sigtramp_rt64+0x0)[0x2000000504d8]
terminate called after throwing an instance of 'std::runtime_error'
  what():  cudaGetDeviceCount(&m_cudaDevCount) error( cudaErrorNoDevice): no CUDA-capable device is detected ../../lib/kokkos/core/src/Cuda/Kokkos_Cuda_Instance.cpp:224
Traceback functionality not available

[r228n18:12745] *** Process received signal ***
[r228n18:12745] Signal: Aborted (6)
[r228n18:12745] Signal code:  (-6)
[r228n18:12745] [ 0] linux-vdso64.so.1(__kernel_sigtramp_rt64+0x0)[0x2000000504d8]
[r228n18:12745] [ 1] terminate called after throwing an instance of 'std::runtime_error'
  what():  cudaGetDeviceCount(&m_cudaDevCount) error( cudaErrorNoDevice): no CUDA-capable device is detected ../../lib/kokkos/core/src/Cuda/Kokkos_Cuda_Instance.cpp:224
Traceback functionality not available

[r228n17:50552] *** Process received signal ***
[r228n17:50552] Signal: Aborted (6)
[r228n17:50552] Signal code:  (-6)
[r228n17:50552] [ 0] linux-vdso64.so.1(__kernel_sigtramp_rt64+0x0)[0x2000000504d8]
[r228n17:50552] [ 1] /lib64/power9/libc.so.6(gsignal+0xd8)[0x20000bb63798]
[r228n17:50552] [ 2] /lib64/power9/libc.so.6(abort+0x164)[0x20000bb43bac]
[r228n17:50552] [ 3] /cineca/prod/opt/compilers/gnu/8.4.0/none/lib64/libstdc++.so.6(_ZN9__gnu_cxx27__verbose_terminate_handlerEv+0x158)[0x20000b32bd38]
[r228n17:50552] [ 4] /cineca/prod/opt/compilers/gnu/8.4.0/none/lib64/libstdc++.so.6(+0xb6c44)[0x20000b326c44]
[r228n17:50552] [ 5] /cineca/prod/opt/compilers/gnu/8.4.0/none/lib64/libstdc++.so.6(_ZSt9terminatev+0x20)[0x20000b326d00]
[r228n17:50552] [ 6] /cineca/prod/opt/compilers/gnu/8.4.0/none/lib64/libstdc++.so.6(__cxa_throw+0x7c)[0x20000b3271dc]
[r228n17:50552] [ 7] terminate called after throwing an instance of 'std::runtime_error'
  what():  cudaGetDeviceCount(&m_cudaDevCount) error( cudaErrorNoDevice): no CUDA-capable device is detected ../../lib/kokkos/core/src/Cuda/Kokkos_Cuda_Instance.cpp:224
Traceback functionality not available

[r228n17:50553] *** Process received signal ***
[r228n17:50553] Signal: Aborted (6)
[r228n17:50553] Signal code:  (-6)
[r228n17:50553] [ 0] linux-vdso64.so.1(__kernel_sigtramp_rt64+0x0)[0x2000000504d8]
[r228n17:50553] [ 1] /lib64/power9/libc.so.6(gsignal+0xd8)[0x20000bb63798]
[r228n17:50553] [ 2] /lib64/power9/libc.so.6(abort+0x164)[0x20000bb43bac]
[r228n17:50553] [ 3] /cineca/prod/opt/compilers/gnu/8.4.0/none/lib64/libstdc++.so.6(_ZN9__gnu_cxx27__verbose_terminate_handlerEv+0x158)[0x20000b32bd38]
[r228n17:50553] [ 4] /cineca/prod/opt/compilers/gnu/8.4.0/none/lib64/libstdc++.so.6(+0xb6c44)[0x20000b326c44]
[r228n17:50553] [ 5] /cineca/prod/opt/compilers/gnu/8.4.0/none/lib64/libstdc++.so.6(_ZSt9terminatev+0x20)[0x20000b326d00]
[r228n17:50553] [ 6] /cineca/prod/opt/compilers/gnu/8.4.0/none/lib64/libstdc++.so.6(__cxa_throw+0x7c)[0x20000b3271dc]
[r228n17:50553] [ 7] terminate called after throwing an instance of 'std::runtime_error'
  what():  cudaGetDeviceCount(&m_cudaDevCount) error( cudaErrorNoDevice): no CUDA-capable device is detected ../../lib/kokkos/core/src/Cuda/Kokkos_Cuda_Instance.cpp:224
Traceback functionality not available

[r228n17:50551] *** Process received signal ***
[r228n17:50551] Signal: Aborted (6)
[r228n17:50551] Signal code:  (-6)
[r228n17:50551] [ 0] linux-vdso64.so.1(__kernel_sigtramp_rt64+0x0)[0x2000000504d8]
[r228n17:50551] [ 1] /lib64/power9/libc.so.6(gsignal+0xd8)[0x20000bb63798]
[r228n17:50551] [ 2] /lib64/power9/libc.so.6(abort+0x164)[0x20000bb43bac]
[r228n17:50551] [ 3] /cineca/prod/opt/compilers/gnu/8.4.0/none/lib64/libstdc++.so.6(_ZN9__gnu_cxx27__verbose_terminate_handlerEv+0x158)[0x20000b32bd38]
[r228n17:50551] [ 4] /cineca/prod/opt/compilers/gnu/8.4.0/none/lib64/libstdc++.so.6(+0xb6c44)[0x20000b326c44]
[r228n17:50551] [ 5] /cineca/prod/opt/compilers/gnu/8.4.0/none/lib64/libstdc++.so.6(_ZSt9terminatev+0x20)[0x20000b326d00]
[r228n17:50551] [ 6] /cineca/prod/opt/compilers/gnu/8.4.0/none/lib64/libstdc++.so.6(__cxa_throw+0x7c)[0x20000b3271dc]
[r228n17:50551] [ 7] terminate called after throwing an instance of 'std::runtime_error'
  what():  cudaGetDeviceCount(&m_cudaDevCount) error( cudaErrorNoDevice): no CUDA-capable device is detected ../../lib/kokkos/core/src/Cuda/Kokkos_Cuda_Instance.cpp:224
Traceback functionality not available

[r228n17:50557] *** Process received signal ***
[r228n17:50557] Signal: Aborted (6)
[r228n17:50557] Signal code:  (-6)
[r228n17:50557] [ 0] linux-vdso64.so.1(__kernel_sigtramp_rt64+0x0)[0x2000000504d8]
[r228n17:50557] [ 1] /lib64/power9/libc.so.6(gsignal+0xd8)[0x20000bb63798]
[r228n17:50557] [ 2] /lib64/power9/libc.so.6(abort+0x164)[0x20000bb43bac]
[r228n17:50557] [ 3] /cineca/prod/opt/compilers/gnu/8.4.0/none/lib64/libstdc++.so.6(_ZN9__gnu_cxx27__verbose_terminate_handlerEv+0x158)[0x20000b32bd38]
[r228n17:50557] [ 4] /cineca/prod/opt/compilers/gnu/8.4.0/none/lib64/libstdc++.so.6(+0xb6c44)[0x20000b326c44]
[r228n17:50557] [ 5] /cineca/prod/opt/compilers/gnu/8.4.0/none/lib64/libstdc++.so.6(_ZSt9terminatev+0x20)[0x20000b326d00]
[r228n17:50557] [ 6] /cineca/prod/opt/compilers/gnu/8.4.0/none/lib64/libstdc++.so.6(__cxa_throw+0x7c)[0x20000b3271dc]
[r228n17:50557] [ 7] /cineca/prod/opt/compilers/gnu/8.4.0/none/lib64/libstdc++.so.6(__cxa_throw+0x7c)[0x20000b3271dc]
[r228n17:50571] [ 7] terminate called after throwing an instance of 'std::runtime_error'
  what():  cudaGetDeviceCount(&m_cudaDevCount) error( cudaErrorNoDevice): no CUDA-capable device is detected ../../lib/kokkos/core/src/Cuda/Kokkos_Cuda_Instance.cpp:224
Traceback functionality not available

[r228n17:50555] *** Process received signal ***
[r228n17:50555] Signal: Aborted (6)
[r228n17:50555] Signal code:  (-6)
[r228n17:50555] [ 0] linux-vdso64.so.1(__kernel_sigtramp_rt64+0x0)[0x2000000504d8]
[r228n17:50555] [ 1] /lib64/power9/libc.so.6(gsignal+0xd8)[0x20000bb63798]
[r228n17:50555] [ 2] /lib64/power9/libc.so.6(abort+0x164)[0x20000bb43bac]
[r228n17:50555] [ 3] /cineca/prod/opt/compilers/gnu/8.4.0/none/lib64/libstdc++.so.6(_ZN9__gnu_cxx27__verbose_terminate_handlerEv+0x158)[0x20000b32bd38]
[r228n17:50555] [ 4] /cineca/prod/opt/compilers/gnu/8.4.0/none/lib64/libstdc++.so.6(+0xb6c44)[0x20000b326c44]
[r228n17:50555] [ 5] /cineca/prod/opt/compilers/gnu/8.4.0/none/lib64/libstdc++.so.6(_ZSt9terminatev+0x20)[0x20000b326d00]
[r228n17:50555] [ 6] /cineca/prod/opt/compilers/gnu/8.4.0/none/lib64/libstdc++.so.6(__cxa_throw+0x7c)[0x20000b3271dc]
[r228n17:50555] [ 7] [r228n17:50556] [ 0] linux-vdso64.so.1(__kernel_sigtramp_rt64+0x0)[0x2000000504d8]
[r228n17:50556] [ 1] /lib64/power9/libc.so.6(gsignal+0xd8)[0x20000bb63798]
[r228n17:50556] [ 2] /lib64/power9/libc.so.6(abort+0x164)[0x20000bb43bac]
[r228n17:50556] [ 3] /cineca/prod/opt/compilers/gnu/8.4.0/none/lib64/libstdc++.so.6(_ZN9__gnu_cxx27__verbose_terminate_handlerEv+0x158)[0x20000b32bd38]
[r228n17:50556] [ 4] /cineca/prod/opt/compilers/gnu/8.4.0/none/lib64/libstdc++.so.6(+0xb6c44)[0x20000b326c44]
[r228n17:50556] [ 5] /cineca/prod/opt/compilers/gnu/8.4.0/none/lib64/libstdc++.so.6(_ZSt9terminatev+0x20)[0x20000b326d00]
[r228n17:50556] [ 6] /cineca/prod/opt/compilers/gnu/8.4.0/none/lib64/libstdc++.so.6(__cxa_throw+0x7c)[0x20000b3271dc]
[r228n17:50556] [ 7] /cineca/prod/opt/compilers/gnu/8.4.0/none/lib64/libstdc++.so.6(_ZN9__gnu_cxx27__verbose_terminate_handlerEv+0x158)[0x20000b32bd38]
[r228n17:50561] [ 4] /cineca/prod/opt/compilers/gnu/8.4.0/none/lib64/libstdc++.so.6(+0xb6c44)[0x20000b326c44]
[r228n17:50561] [ 5] /cineca/prod/opt/compilers/gnu/8.4.0/none/lib64/libstdc++.so.6(_ZSt9terminatev+0x20)[0x20000b326d00]
[r228n17:50561] [ 6] /cineca/prod/opt/compilers/gnu/8.4.0/none/lib64/libstdc++.so.6(__cxa_throw+0x7c)[0x20000b3271dc]
[r228n17:50561] [ 7] /cineca/prod/opt/compilers/gnu/8.4.0/none/lib64/libstdc++.so.6(__cxa_throw+0x7c)[0x20000b3271dc]
[r228n17:50554] [ 7] /cineca/prod/opt/compilers/gnu/8.4.0/none/lib64/libstdc++.so.6(_ZN9__gnu_cxx27__verbose_terminate_handlerEv+0x158)[0x20000b32bd38]
[r228n17:50560] [ 4] /cineca/prod/opt/compilers/gnu/8.4.0/none/lib64/libstdc++.so.6(+0xb6c44)[0x20000b326c44]
[r228n17:50560] [ 5] /cineca/prod/opt/compilers/gnu/8.4.0/none/lib64/libstdc++.so.6(_ZSt9terminatev+0x20)[0x20000b326d00]
[r228n17:50560] [ 6] /cineca/prod/opt/compilers/gnu/8.4.0/none/lib64/libstdc++.so.6(__cxa_throw+0x7c)[0x20000b3271dc]
[r228n17:50560] [ 7] /cineca/prod/opt/compilers/gnu/8.4.0/none/lib64/libstdc++.so.6(_ZN9__gnu_cxx27__verbose_terminate_handlerEv+0x158)[0x20000b32bd38]
[r228n17:50565] [ 4] /cineca/prod/opt/compilers/gnu/8.4.0/none/lib64/libstdc++.so.6(+0xb6c44)[0x20000b326c44]
[r228n17:50565] [ 5] /cineca/prod/opt/compilers/gnu/8.4.0/none/lib64/libstdc++.so.6(_ZSt9terminatev+0x20)[0x20000b326d00]
[r228n17:50565] [ 6] /cineca/prod/opt/compilers/gnu/8.4.0/none/lib64/libstdc++.so.6(__cxa_throw+0x7c)[0x20000b3271dc]
[r228n17:50565] [ 7] /cineca/prod/opt/compilers/gnu/8.4.0/none/lib64/libstdc++.so.6(+0xb6c44)[0x20000b326c44]
[r228n17:50563] [ 5] /cineca/prod/opt/compilers/gnu/8.4.0/none/lib64/libstdc++.so.6(_ZSt9terminatev+0x20)[0x20000b326d00]
[r228n17:50563] [ 6] /cineca/prod/opt/compilers/gnu/8.4.0/none/lib64/libstdc++.so.6(__cxa_throw+0x7c)[0x20000b3271dc]
[r228n17:50563] [ 7] [r228n17:50564] [ 0] linux-vdso64.so.1(__kernel_sigtramp_rt64+0x0)[0x2000000504d8]
[r228n17:50564] [ 1] /lib64/power9/libc.so.6(gsignal+0xd8)[0x20000bb63798]
[r228n17:50564] [ 2] /lib64/power9/libc.so.6(abort+0x164)[0x20000bb43bac]
[r228n17:50564] [ 3] /cineca/prod/opt/compilers/gnu/8.4.0/none/lib64/libstdc++.so.6(_ZN9__gnu_cxx27__verbose_terminate_handlerEv+0x158)[0x20000b32bd38]
[r228n17:50564] [ 4] /cineca/prod/opt/compilers/gnu/8.4.0/none/lib64/libstdc++.so.6(+0xb6c44)[0x20000b326c44]
[r228n17:50564] [ 5] /cineca/prod/opt/compilers/gnu/8.4.0/none/lib64/libstdc++.so.6(_ZSt9terminatev+0x20)[0x20000b326d00]
[r228n17:50564] [ 6] /cineca/prod/opt/compilers/gnu/8.4.0/none/lib64/libstdc++.so.6(__cxa_throw+0x7c)[0x20000b3271dc]
[r228n17:50564] [ 7] terminate called after throwing an instance of 'std::runtime_error'
  what():  cudaGetDeviceCount(&m_cudaDevCount) error( cudaErrorNoDevice): no CUDA-capable device is detected ../../lib/kokkos/core/src/Cuda/Kokkos_Cuda_Instance.cpp:224
Traceback functionality not available

[r228n17:50572] *** Process received signal ***
[r228n17:50572] Signal: Aborted (6)
[r228n17:50572] Signal code:  (-6)
[r228n17:50572] [ 0] linux-vdso64.so.1(__kernel_sigtramp_rt64+0x0)[0x2000000504d8]
[r228n17:50572] [ 1] /lib64/power9/libc.so.6(gsignal+0xd8)[0x20000bb63798]
[r228n17:50572] [ 2] /lib64/power9/libc.so.6(abort+0x164)[0x20000bb43bac]
[r228n17:50572] [ 3] /cineca/prod/opt/compilers/gnu/8.4.0/none/lib64/libstdc++.so.6(_ZN9__gnu_cxx27__verbose_terminate_handlerEv+0x158)[0x20000b32bd38]
[r228n17:50572] [ 4] /cineca/prod/opt/compilers/gnu/8.4.0/none/lib64/libstdc++.so.6(+0xb6c44)[0x20000b326c44]
[r228n17:50572] [ 5] /cineca/prod/opt/compilers/gnu/8.4.0/none/lib64/libstdc++.so.6(_ZSt9terminatev+0x20)[0x20000b326d00]
[r228n17:50572] [ 6] /cineca/prod/opt/compilers/gnu/8.4.0/none/lib64/libstdc++.so.6(__cxa_throw+0x7c)[0x20000b3271dc]
[r228n17:50572] [ 7] /cineca/prod/opt/compilers/gnu/8.4.0/none/lib64/libstdc++.so.6(_ZSt9terminatev+0x20)[0x20000b326d00]
[r228n17:50568] [ 6] /cineca/prod/opt/compilers/gnu/8.4.0/none/lib64/libstdc++.so.6(__cxa_throw+0x7c)[0x20000b3271dc]
[r228n17:50568] [ 7] terminate called after throwing an instance of 'std::runtime_error'
  what():  cudaGetDeviceCount(&m_cudaDevCount) error( cudaErrorNoDevice): no CUDA-capable device is detected ../../lib/kokkos/core/src/Cuda/Kokkos_Cuda_Instance.cpp:224
Traceback functionality not available

[r228n17:50573] *** Process received signal ***
[r228n17:50573] Signal: Aborted (6)
[r228n17:50573] Signal code:  (-6)
[r228n17:50573] [ 0] linux-vdso64.so.1(__kernel_sigtramp_rt64+0x0)[0x2000000504d8]
[r228n17:50573] [ 1] /lib64/power9/libc.so.6(gsignal+0xd8)[0x20000bb63798]
[r228n17:50573] [ 2] /lib64/power9/libc.so.6(abort+0x164)[0x20000bb43bac]
[r228n17:50573] [ 3] /cineca/prod/opt/compilers/gnu/8.4.0/none/lib64/libstdc++.so.6(_ZN9__gnu_cxx27__verbose_terminate_handlerEv+0x158)[0x20000b32bd38]
[r228n17:50573] [ 4] /cineca/prod/opt/compilers/gnu/8.4.0/none/lib64/libstdc++.so.6(+0xb6c44)[0x20000b326c44]
[r228n17:50573] [ 5] /cineca/prod/opt/compilers/gnu/8.4.0/none/lib64/libstdc++.so.6(_ZSt9terminatev+0x20)[0x20000b326d00]
[r228n17:50573] [ 6] /cineca/prod/opt/compilers/gnu/8.4.0/none/lib64/libstdc++.so.6(__cxa_throw+0x7c)[0x20000b3271dc]
[r228n17:50573] [ 7] /cineca/prod/opt/compilers/gnu/8.4.0/none/lib64/libstdc++.so.6(+0xb6c44)[0x20000b326c44]
[r228n17:50549] [ 5] /cineca/prod/opt/compilers/gnu/8.4.0/none/lib64/libstdc++.so.6(_ZSt9terminatev+0x20)[0x20000b326d00]
[r228n17:50549] [ 6] /cineca/prod/opt/compilers/gnu/8.4.0/none/lib64/libstdc++.so.6(__cxa_throw+0x7c)[0x20000b3271dc]
[r228n17:50549] [ 7] terminate called after throwing an instance of 'std::runtime_error'
  what():  cudaGetDeviceCount(&m_cudaDevCount) error( cudaErrorNoDevice): no CUDA-capable device is detected ../../lib/kokkos/core/src/Cuda/Kokkos_Cuda_Instance.cpp:224
Traceback functionality not available

[r228n17:50543] *** Process received signal ***
[r228n17:50543] Signal: Aborted (6)
[r228n17:50543] Signal code:  (-6)
[r228n17:50543] [ 0] linux-vdso64.so.1(__kernel_sigtramp_rt64+0x0)[0x2000000504d8]
[r228n17:50543] [ 1] /lib64/power9/libc.so.6(gsignal+0xd8)[0x20000bb63798]
[r228n17:50543] [ 2] /lib64/power9/libc.so.6(abort+0x164)[0x20000bb43bac]
[r228n17:50543] [ 3] /cineca/prod/opt/compilers/gnu/8.4.0/none/lib64/libstdc++.so.6(_ZN9__gnu_cxx27__verbose_terminate_handlerEv+0x158)[0x20000b32bd38]
[r228n17:50543] [ 4] /cineca/prod/opt/compilers/gnu/8.4.0/none/lib64/libstdc++.so.6(+0xb6c44)[0x20000b326c44]
[r228n17:50543] [ 5] /cineca/prod/opt/compilers/gnu/8.4.0/none/lib64/libstdc++.so.6(_ZSt9terminatev+0x20)[0x20000b326d00]
[r228n17:50543] [ 6] /cineca/prod/opt/compilers/gnu/8.4.0/none/lib64/libstdc++.so.6(__cxa_throw+0x7c)[0x20000b3271dc]
[r228n17:50543] [ 7] [r228n17:50544] *** Process received signal ***
[r228n17:50544] Signal: Aborted (6)
[r228n17:50544] Signal code:  (-6)
[r228n17:50544] [ 0] linux-vdso64.so.1(__kernel_sigtramp_rt64+0x0)[0x2000000504d8]
[r228n17:50544] [ 1] /lib64/power9/libc.so.6(gsignal+0xd8)[0x20000bb63798]
[r228n17:50544] [ 2] /lib64/power9/libc.so.6(abort+0x164)[0x20000bb43bac]
[r228n17:50544] [ 3] /cineca/prod/opt/compilers/gnu/8.4.0/none/lib64/libstdc++.so.6(_ZN9__gnu_cxx27__verbose_terminate_handlerEv+0x158)[0x20000b32bd38]
[r228n17:50544] [ 4] /cineca/prod/opt/compilers/gnu/8.4.0/none/lib64/libstdc++.so.6(+0xb6c44)[0x20000b326c44]
[r228n17:50544] [ 5] /cineca/prod/opt/compilers/gnu/8.4.0/none/lib64/libstdc++.so.6(_ZSt9terminatev+0x20)[0x20000b326d00]
[r228n17:50544] [ 6] /cineca/prod/opt/compilers/gnu/8.4.0/none/lib64/libstdc++.so.6(__cxa_throw+0x7c)[0x20000b3271dc]
[r228n17:50544] [ 7] /cineca/prod/opt/compilers/gnu/8.4.0/none/lib64/libstdc++.so.6(+0xb6c44)[0x20000b326c44]
[r228n17:50542] [ 5] /cineca/prod/opt/compilers/gnu/8.4.0/none/lib64/libstdc++.so.6(_ZSt9terminatev+0x20)[0x20000b326d00]
[r228n17:50542] [ 6] /cineca/prod/opt/compilers/gnu/8.4.0/none/lib64/libstdc++.so.6(__cxa_throw+0x7c)[0x20000b3271dc]
[r228n17:50542] [ 7] terminate called after throwing an instance of 'std::runtime_error'
  what():  cudaGetDeviceCount(&m_cudaDevCount) error( cudaErrorNoDevice): no CUDA-capable device is detected ../../lib/kokkos/core/src/Cuda/Kokkos_Cuda_Instance.cpp:224
Traceback functionality not available

[r228n17:50548] *** Process received signal ***
[r228n17:50548] Signal: Aborted (6)
[r228n17:50548] Signal code:  (-6)
[r228n17:50548] [ 0] linux-vdso64.so.1(__kernel_sigtramp_rt64+0x0)[0x2000000504d8]
[r228n17:50548] [ 1] /lib64/power9/libc.so.6(gsignal+0xd8)[0x20000bb63798]
[r228n17:50548] [ 2] /lib64/power9/libc.so.6(abort+0x164)[0x20000bb43bac]
[r228n17:50548] [ 3] /cineca/prod/opt/compilers/gnu/8.4.0/none/lib64/libstdc++.so.6(_ZN9__gnu_cxx27__verbose_terminate_handlerEv+0x158)[0x20000b32bd38]
[r228n17:50548] [ 4] /cineca/prod/opt/compilers/gnu/8.4.0/none/lib64/libstdc++.so.6(+0xb6c44)[0x20000b326c44]
[r228n17:50548] [ 5] /cineca/prod/opt/compilers/gnu/8.4.0/none/lib64/libstdc++.so.6(_ZSt9terminatev+0x20)[0x20000b326d00]
[r228n17:50548] [ 6] /cineca/prod/opt/compilers/gnu/8.4.0/none/lib64/libstdc++.so.6(__cxa_throw+0x7c)[0x20000b3271dc]
[r228n17:50548] [ 7] terminate called after throwing an instance of 'std::runtime_error'
  what():  cudaGetDeviceCount(&m_cudaDevCount) error( cudaErrorNoDevice): no CUDA-capable device is detected ../../lib/kokkos/core/src/Cuda/Kokkos_Cuda_Instance.cpp:224
Traceback functionality not available

[r228n17:50547] *** Process received signal ***
[r228n17:50547] Signal: Aborted (6)
[r228n17:50547] Signal code:  (-6)
[r228n17:50547] [ 0] linux-vdso64.so.1(__kernel_sigtramp_rt64+0x0)[0x2000000504d8]
[r228n17:50547] [ 1] /lib64/power9/libc.so.6(gsignal+0xd8)[0x20000bb63798]
[r228n17:50547] [ 2] /lib64/power9/libc.so.6(abort+0x164)[0x20000bb43bac]
[r228n17:50547] [ 3] /cineca/prod/opt/compilers/gnu/8.4.0/none/lib64/libstdc++.so.6(_ZN9__gnu_cxx27__verbose_terminate_handlerEv+0x158)[0x20000b32bd38]
[r228n17:50547] [ 4] /cineca/prod/opt/compilers/gnu/8.4.0/none/lib64/libstdc++.so.6(+0xb6c44)[0x20000b326c44]
[r228n17:50547] [ 5] /cineca/prod/opt/compilers/gnu/8.4.0/none/lib64/libstdc++.so.6(_ZSt9terminatev+0x20)[0x20000b326d00]
[r228n17:50547] [ 6] /cineca/prod/opt/compilers/gnu/8.4.0/none/lib64/libstdc++.so.6(__cxa_throw+0x7c)[0x20000b3271dc]
[r228n17:50547] [ 7] terminate called after throwing an instance of 'std::runtime_error'
  what():  cudaGetDeviceCount(&m_cudaDevCount) error( cudaErrorNoDevice): no CUDA-capable device is detected ../../lib/kokkos/core/src/Cuda/Kokkos_Cuda_Instance.cpp:224
Traceback functionality not available

[r232n17:95441] *** Process received signal ***
[r232n17:95441] Signal: Aborted (6)
[r232n17:95441] Signal code:  (-6)
[r232n17:95441] [ 0] terminate called after throwing an instance of 'std::runtime_error'
  what():  cudaGetDeviceCount(&m_cudaDevCount) error( cudaErrorNoDevice): no CUDA-capable device is detected ../../lib/kokkos/core/src/Cuda/Kokkos_Cuda_Instance.cpp:224
Traceback functionality not available

[r232n18:13472] *** Process received signal ***
[r232n18:13472] Signal: Aborted (6)
[r232n18:13472] Signal code:  (-6)
[r232n18:13472] [ 0] linux-vdso64.so.1(__kernel_sigtramp_rt64+0x0)[0x2000000504d8]
[r232n18:13472] [ 1] terminate called after throwing an instance of 'std::runtime_error'
  what():  cudaGetDeviceCount(&m_cudaDevCount) error( cudaErrorNoDevice): no CUDA-capable device is detected ../../lib/kokkos/core/src/Cuda/Kokkos_Cuda_Instance.cpp:224
Traceback functionality not available

[r228n18:12758] *** Process received signal ***
[r228n18:12758] Signal: Aborted (6)
[r228n18:12758] Signal code:  (-6)
[r228n18:12758] [ 0] linux-vdso64.so.1(__kernel_sigtramp_rt64+0x0)[0x2000000504d8]
[r228n18:12758] [ 1] /lib64/power9/libc.so.6(gsignal+0xd8)[0x20000bb63798]
[r228n18:12758] [ 2] terminate called after throwing an instance of 'std::runtime_error'
  what():  cudaGetDeviceCount(&m_cudaDevCount) error( cudaErrorNoDevice): no CUDA-capable device is detected ../../lib/kokkos/core/src/Cuda/Kokkos_Cuda_Instance.cpp:224
Traceback functionality not available

[r232n17:95461] *** Process received signal ***
[r232n17:95461] Signal: Aborted (6)
[r232n17:95461] Signal code:  (-6)
[r232n17:95461] [ 0] linux-vdso64.so.1(__kernel_sigtramp_rt64+0x0)[0x2000000504d8]
[r232n17:95461] terminate called after throwing an instance of 'std::runtime_error'
  what():  cudaGetDeviceCount(&m_cudaDevCount) error( cudaErrorNoDevice): no CUDA-capable device is detected ../../lib/kokkos/core/src/Cuda/Kokkos_Cuda_Instance.cpp:224
Traceback functionality not available

[r232n18:13466] *** Process received signal ***
[r232n18:13466] Signal: Aborted (6)
[r232n18:13466] Signal code:  (-6)
[r232n18:13466] [ 0] linux-vdso64.so.1(__kernel_sigtramp_rt64+0x0)[0x2000000504d8]
[r232n18:13466] [ 1] /lib64/power9/libc.so.6(gsignal+0xd8)[0x20000bb63798]
[r232n18:13466] [ 2] terminate called after throwing an instance of 'std::runtime_error'
  what():  cudaGetDeviceCount(&m_cudaDevCount) error( cudaErrorNoDevice): no CUDA-capable device is detected ../../lib/kokkos/core/src/Cuda/Kokkos_Cuda_Instance.cpp:224
Traceback functionality not available

[r228n18:12731] *** Process received signal ***
[r228n18:12731] Signal: Aborted (6)
[r228n18:12731] Signal code:  (-6)
[r228n18:12731] [ 0] linux-vdso64.so.1(__kernel_sigtramp_rt64+0x0)[0x2000000504d8]
[r228n18:12731] [ 1] /lib64/power9/libc.so.6(gsignal+0xd8)[0x20000bb63798]
[r228n18:12731] [ 2] /lib64/power9/libc.so.6(abort+0x164)[0x20000bb43bac]
[r228n18:12731] terminate called after throwing an instance of 'std::runtime_error'
  what():  cudaGetDeviceCount(&m_cudaDevCount) error( cudaErrorNoDevice): no CUDA-capable device is detected ../../lib/kokkos/core/src/Cuda/Kokkos_Cuda_Instance.cpp:224
Traceback functionality not available

[r232n17:95470] *** Process received signal ***
[r232n17:95470] Signal: Aborted (6)
[r232n17:95470] Signal code:  (-6)
[r232n17:95470] [ 0] terminate called after throwing an instance of 'std::runtime_error'
  what():  cudaGetDeviceCount(&m_cudaDevCount) error( cudaErrorNoDevice): no CUDA-capable device is detected ../../lib/kokkos/core/src/Cuda/Kokkos_Cuda_Instance.cpp:224
Traceback functionality not available

terminate called after throwing an instance of 'std::runtime_error'
terminate called after throwing an instance of 'std::runtime_error'
  what():  cudaGetDeviceCount(&m_cudaDevCount) error( cudaErrorNoDevice): no CUDA-capable device is detected ../../lib/kokkos/core/src/Cuda/Kokkos_Cuda_Instance.cpp:224
Traceback functionality not available

[r232n17:95468] *** Process received signal ***
[r232n17:95468] Signal: Aborted (6)
[r232n17:95468] Signal code:  (-6)
[r232n17:95468] [ 0] linux-vdso64.so.1(__kernel_sigtramp_rt64+0x0)[0x2000000504d8]
[r232n17:95468] [ 1] /lib64/power9/libc.so.6(gsignal+0xd8)[0x20000bb63798]
[r232n17:95468] [ 2] /lib64/power9/libc.so.6(abort+0x164)[0x20000bb43bac]
[r232n18:13466] [ 3] terminate called after throwing an instance of 'std::runtime_error'
  what():  cudaGetDeviceCount(&m_cudaDevCount) error( cudaErrorNoDevice): no CUDA-capable device is detected ../../lib/kokkos/core/src/Cuda/Kokkos_Cuda_Instance.cpp:224
Traceback functionality not available

[r228n18:12750] *** Process received signal ***
[r228n18:12750] Signal: Aborted (6)
[r228n18:12750] Signal code:  (-6)
[r228n18:12750] [ 0] linux-vdso64.so.1(__kernel_sigtramp_rt64+0x0)[0x2000000504d8]
[r228n18:12750] [ 1] /lib64/power9/libc.so.6(gsignal+0xd8)[0x20000bb63798]
[r228n18:12750] [ 2] terminate called after throwing an instance of 'std::runtime_error'
  what():  cudaGetDeviceCount(&m_cudaDevCount) error( cudaErrorNoDevice): no CUDA-capable device is detected ../../lib/kokkos/core/src/Cuda/Kokkos_Cuda_Instance.cpp:224
Traceback functionality not available

[r232n17:95471] *** Process received signal ***
[r232n17:95471] Signal: Aborted (6)
[r232n17:95471] Signal code:  (-6)
[r232n17:95471] [ 0] linux-vdso64.so.1(__kernel_sigtramp_rt64+0x0)[0x2000000504d8]
[r232n17:95471] [ 1] terminate called after throwing an instance of 'std::runtime_error'
  what():  cudaGetDeviceCount(&m_cudaDevCount) error( cudaErrorNoDevice): no CUDA-capable device is detected ../../lib/kokkos/core/src/Cuda/Kokkos_Cuda_Instance.cpp:224
Traceback functionality not available

[r232n18:13454] *** Process received signal ***
[r232n18:13454] Signal: Aborted (6)
[r232n18:13454] Signal code:  (-6)
[r232n18:13454] [ 0] linux-vdso64.so.1(__kernel_sigtramp_rt64+0x0)[0x2000000504d8]
[r232n18:13454] [ 1] /lib64/power9/libc.so.6(gsignal+0xd8)[0x20000bb63798]
[r232n18:13454] [ 2] /lib64/power9/libc.so.6(abort+0x164)[0x20000bb43bac]
[r232n18:13454] [ 3] terminate called after throwing an instance of 'std::runtime_error'
  what():  cudaGetDeviceCount(&m_cudaDevCount) error( cudaErrorNoDevice): no CUDA-capable device is detected ../../lib/kokkos/core/src/Cuda/Kokkos_Cuda_Instance.cpp:224
Traceback functionality not available

[r228n18:12749] *** Process received signal ***
[r228n18:12749] Signal: Aborted (6)
[r228n18:12749] Signal code:  (-6)
[r228n18:12749] [ 0] linux-vdso64.so.1(__kernel_sigtramp_rt64+0x0)[0x2000000504d8]
[r228n18:12749] [ 1] /lib64/power9/libc.so.6(gsignal+0xd8)[0x20000bb63798]
[r228n18:12749] terminate called after throwing an instance of 'std::runtime_error'
  what():  cudaGetDeviceCount(&m_cudaDevCount) error( cudaErrorNoDevice): no CUDA-capable device is detected ../../lib/kokkos/core/src/Cuda/Kokkos_Cuda_Instance.cpp:224
Traceback functionality not available
terminate called after throwing an instance of 'std::runtime_error'
  what():  cudaGetDeviceCount(&m_cudaDevCount) error( cudaErrorNoDevice): no CUDA-capable device is detected ../../lib/kokkos/core/src/Cuda/Kokkos_Cuda_Instance.cpp:224
Traceback functionality not available

[r232n18:13457] *** Process received signal ***
[r232n18:13457] Signal: Aborted (6)
[r232n18:13457] Signal code:  (-6)
[r232n18:13457] terminate called after throwing an instance of 'std::runtime_error'
  what():  cudaGetDeviceCount(&m_cudaDevCount) error( cudaErrorNoDevice): no CUDA-capable device is detected ../../lib/kokkos/core/src/Cuda/Kokkos_Cuda_Instance.cpp:224
Traceback functionality not available

[r228n18:12755] *** Process received signal ***
[r228n18:12755] Signal: Aborted (6)
[r228n18:12755] Signal code:  (-6)
[r228n18:12755] [ 0] linux-vdso64.so.1(__kernel_sigtramp_rt64+0x0)[0x2000000504d8]
[r228n18:12755] [ 1] terminate called after throwing an instance of 'std::runtime_error'
  what():  cudaGetDeviceCount(&m_cudaDevCount) error( cudaErrorNoDevice): no CUDA-capable device is detected ../../lib/kokkos/core/src/Cuda/Kokkos_Cuda_Instance.cpp:224
Traceback functionality not available

[r232n17:95466] *** Process received signal ***
terminate called after throwing an instance of 'std::runtime_error'
  what():  cudaGetDeviceCount(&m_cudaDevCount) error( cudaErrorNoDevice): no CUDA-capable device is detected ../../lib/kokkos/core/src/Cuda/Kokkos_Cuda_Instance.cpp:224
Traceback functionality not available

[r232n18:13455] *** Process received signal ***
[r232n18:13455] Signal: Aborted (6)
[r232n18:13455] Signal code:  (-6)
[r232n18:13455] [ 0] linux-vdso64.so.1(__kernel_sigtramp_rt64+0x0)[0x2000000504d8]
[r232n18:13455] [ 1] /lib64/power9/libc.so.6(gsignal+0xd8)[0x20000bb63798]
[r232n18:13455] [ 2] /lib64/power9/libc.so.6(abort+0x164)[0x20000bb43bac]
[r232n18:13455] [ 3] /cineca/prod/opt/compilers/gnu/8.4.0/none/lib64/libstdc++.so.6(_ZN9__gnu_cxx27__verbose_terminate_handlerEv+0x158)[0x20000b32bd38]
[r232n18:13455] [ 4] /lib64/power9/libc.so.6(gsignal+0xd8)[0x20000bb63798]
[r228n18:12745] [ 2] /lib64/power9/libc.so.6(abort+0x164)[0x20000bb43bac]
[r228n18:12745] [ 3] terminate called after throwing an instance of 'std::runtime_error'
  what():  cudaGetDeviceCount(&m_cudaDevCount) error( cudaErrorNoDevice): no CUDA-capable device is detected ../../lib/kokkos/core/src/Cuda/Kokkos_Cuda_Instance.cpp:224
Traceback functionality not available

[r232n17:95464] *** Process received signal ***
[r232n17:95464] Signal: Aborted (6)
[r232n17:95464] Signal code:  (-6)
[r232n17:95464] [ 0] linux-vdso64.so.1(__kernel_sigtramp_rt64+0x0)[0x2000000504d8]
[r232n17:95464] [ 1] /lib64/power9/libc.so.6(gsignal+0xd8)[0x20000bb63798]
[r232n17:95464] [ 2] /lib64/power9/libc.so.6(abort+0x164)[0x20000bb43bac]
[r232n17:95464] [ 3] /cineca/prod/opt/compilers/gnu/8.4.0/none/lib64/libstdc++.so.6(_ZN9__gnu_cxx27__verbose_terminate_handlerEv+0x158)[0x20000b32bd38]
terminate called after throwing an instance of 'std::runtime_error'
  what():  cudaGetDeviceCount(&m_cudaDevCount) error( cudaErrorNoDevice): no CUDA-capable device is detected ../../lib/kokkos/core/src/Cuda/Kokkos_Cuda_Instance.cpp:224
Traceback functionality not available

[r232n18:13461] *** Process received signal ***
[r232n18:13461] Signal: Aborted (6)
[r232n18:13461] Signal code:  (-6)
[r232n18:13461] [ 0] linux-vdso64.so.1(__kernel_sigtramp_rt64+0x0)[0x2000000504d8]
[r232n18:13461] [ 1] /lib64/power9/libc.so.6(gsignal+0xd8)[0x20000bb63798]
[r232n18:13461] [ 2] /lib64/power9/libc.so.6(abort+0x164)[0x20000bb43bac]
[r232n18:13461] [ 3] [ 3] linux-vdso64.so.1(__kernel_sigtramp_rt64+0x0)[0x2000000504d8]
[r232n17:95441] [ 1] /lib64/power9/libc.so.6(gsignal+0xd8)[0x20000bb63798]
[r232n17:95441] [ 2] /lib64/power9/libc.so.6(abort+0x164)[0x20000bb43bac]
[r232n17:95441] [ 3] /cineca/prod/opt/compilers/gnu/8.4.0/none/lib64/libstdc++.so.6(_ZN9__gnu_cxx27__verbose_terminate_handlerEv+0x158)[0x20000b32bd38]
[r232n17:95441] [ 4] /lib64/power9/libc.so.6(gsignal+0xd8)[0x20000bb63798]
[r232n18:13472] [ 2] /lib64/power9/libc.so.6(abort+0x164)[0x20000bb43bac]
[r232n18:13472] [ 3] /cineca/prod/opt/compilers/gnu/8.4.0/none/lib64/libstdc++.so.6(_ZN9__gnu_cxx27__verbose_terminate_handlerEv+0x158)[0x20000b32bd38]
[r232n18:13472] [ 4] /lib64/power9/libc.so.6(abort+0x164)[0x20000bb43bac]
[r228n18:12758] [ 3] /cineca/prod/opt/compilers/gnu/8.4.0/none/lib64/libstdc++.so.6(_ZN9__gnu_cxx27__verbose_terminate_handlerEv+0x158)[0x20000b32bd38]
[r228n18:12758] [ 4] [ 1] /lib64/power9/libc.so.6(gsignal+0xd8)[0x20000bb63798]
[r232n17:95461] [ 2] /lib64/power9/libc.so.6(abort+0x164)[0x20000bb43bac]
[r232n17:95461] [ 3] /cineca/prod/opt/compilers/gnu/8.4.0/none/lib64/libstdc++.so.6(_ZN9__gnu_cxx27__verbose_terminate_handlerEv+0x158)[0x20000b32bd38]
[r232n17:95461] [ 4] terminate called after throwing an instance of 'std::runtime_error'
  what():  cudaGetDeviceCount(&m_cudaDevCount) error( cudaErrorNoDevice): no CUDA-capable device is detected ../../lib/kokkos/core/src/Cuda/Kokkos_Cuda_Instance.cpp:224
Traceback functionality not available

[r232n18:13469] *** Process received signal ***
[r232n18:13469] Signal: Aborted (6)
[r232n18:13469] Signal code:  (-6)
[r232n18:13469] [ 0] linux-vdso64.so.1(__kernel_sigtramp_rt64+0x0)[0x2000000504d8]
[r232n18:13469] [ 1] /lib64/power9/libc.so.6(gsignal+0xd8)[0x20000bb63798]
[r232n18:13469] [ 2] /lib64/power9/libc.so.6(abort+0x164)[0x20000bb43bac]
[r232n18:13469] [ 3] terminate called after throwing an instance of 'std::runtime_error'
  what():  cudaGetDeviceCount(&m_cudaDevCount) error( cudaErrorNoDevice): no CUDA-capable device is detected ../../lib/kokkos/core/src/Cuda/Kokkos_Cuda_Instance.cpp:224
Traceback functionality not available

[r228n18:12738] *** Process received signal ***
[r228n18:12738] Signal: Aborted (6)
[r228n18:12738] Signal code:  (-6)
[r228n18:12738] [ 0] linux-vdso64.so.1(__kernel_sigtramp_rt64+0x0)[0x2000000504d8]
[r228n18:12738] [ 1] /lib64/power9/libc.so.6(gsignal+0xd8)[0x20000bb63798]
[r228n18:12738] [ 2] /lib64/power9/libc.so.6(abort+0x164)[0x20000bb43bac]
[r228n18:12738] [ 3] linux-vdso64.so.1(__kernel_sigtramp_rt64+0x0)[0x2000000504d8]
[r232n17:95470] [ 1] /lib64/power9/libc.so.6(gsignal+0xd8)[0x20000bb63798]
[r232n17:95470] [ 2] /lib64/power9/libc.so.6(abort+0x164)[0x20000bb43bac]
[r232n17:95470] [ 3] terminate called after throwing an instance of 'std::runtime_error'
  what():  cudaGetDeviceCount(&m_cudaDevCount) error( cudaErrorNoDevice): no CUDA-capable device is detected ../../lib/kokkos/core/src/Cuda/Kokkos_Cuda_Instance.cpp:224
Traceback functionality not available

[r232n18:13473] *** Process received signal ***
[r232n18:13473] Signal: Aborted (6)
[r232n18:13473] Signal code:  (-6)
[r232n18:13473] [ 0] linux-vdso64.so.1(__kernel_sigtramp_rt64+0x0)[0x2000000504d8]
[r232n18:13473] [ 1] /lib64/power9/libc.so.6(gsignal+0xd8)[0x20000bb63798]
[r232n18:13473] [ 2] /lib64/power9/libc.so.6(abort+0x164)[0x20000bb43bac]
[r232n18:13473] [ 3] /cineca/prod/opt/compilers/gnu/8.4.0/none/lib64/libstdc++.so.6(_ZN9__gnu_cxx27__verbose_terminate_handlerEv+0x158)[0x20000b32bd38]
[r232n18:13473] [ 4] terminate called after throwing an instance of 'std::runtime_error'
  what():  cudaGetDeviceCount(&m_cudaDevCount) error( cudaErrorNoDevice): no CUDA-capable device is detected ../../lib/kokkos/core/src/Cuda/Kokkos_Cuda_Instance.cpp:224
Traceback functionality not available

[r228n18:12737] *** Process received signal ***
[r228n18:12737] Signal: Aborted (6)
[r228n18:12737] Signal code:  (-6)
[r228n18:12737] [ 0] linux-vdso64.so.1(__kernel_sigtramp_rt64+0x0)[0x2000000504d8]
[r228n18:12737] [ 1] /lib64/power9/libc.so.6(gsignal+0xd8)[0x20000bb63798]
[r228n18:12737] [ 2] /lib64/power9/libc.so.6(abort+0x164)[0x20000bb43bac]
[r228n18:12737] [ 3] /cineca/prod/opt/compilers/gnu/8.4.0/none/lib64/libstdc++.so.6(_ZN9__gnu_cxx27__verbose_terminate_handlerEv+0x158)[0x20000b32bd38]
[r228n18:12737] [ 4] /cineca/prod/opt/compilers/gnu/8.4.0/none/lib64/libstdc++.so.6(+0xb6c44)[0x20000b326c44]
[r228n18:12737] [ 5] /lib64/power9/libc.so.6(abort+0x164)[0x20000bb43bac]
[r232n17:95468] [ 3] /cineca/prod/opt/compilers/gnu/8.4.0/none/lib64/libstdc++.so.6(_ZN9__gnu_cxx27__verbose_terminate_handlerEv+0x158)[0x20000b32bd38]
[r232n17:95468] [ 4] /cineca/prod/opt/compilers/gnu/8.4.0/none/lib64/libstdc++.so.6(+0xb6c44)[0x20000b326c44]
[r232n17:95468] [ 5] terminate called after throwing an instance of 'std::runtime_error'
  what():  cudaGetDeviceCount(&m_cudaDevCount) error( cudaErrorNoDevice): no CUDA-capable device is detected ../../lib/kokkos/core/src/Cuda/Kokkos_Cuda_Instance.cpp:224
Traceback functionality not available

[r232n18:13475] *** Process received signal ***
[r232n18:13475] Signal: Aborted (6)
[r232n18:13475] Signal code:  (-6)
[r232n18:13475] [ 0] linux-vdso64.so.1(__kernel_sigtramp_rt64+0x0)[0x2000000504d8]
[r232n18:13475] [ 1] /lib64/power9/libc.so.6(gsignal+0xd8)[0x20000bb63798]
[r232n18:13475] [ 2] /lib64/power9/libc.so.6(abort+0x164)[0x20000bb43bac]
[r232n18:13475] [ 3] terminate called after throwing an instance of 'std::runtime_error'
  what():  cudaGetDeviceCount(&m_cudaDevCount) error( cudaErrorNoDevice): no CUDA-capable device is detected ../../lib/kokkos/core/src/Cuda/Kokkos_Cuda_Instance.cpp:224
Traceback functionality not available

[r228n18:12736] *** Process received signal ***
[r228n18:12736] Signal: Aborted (6)
[r228n18:12736] Signal code:  (-6)
[r228n18:12736] [ 0] linux-vdso64.so.1(__kernel_sigtramp_rt64+0x0)[0x2000000504d8]
[r228n18:12736] [ 1] /lib64/power9/libc.so.6(gsignal+0xd8)[0x20000bb63798]
[r228n18:12736] [ 2] /lib64/power9/libc.so.6(abort+0x164)[0x20000bb43bac]
[r228n18:12736] [ 3] /cineca/prod/opt/compilers/gnu/8.4.0/none/lib64/libstdc++.so.6(_ZN9__gnu_cxx27__verbose_terminate_handlerEv+0x158)[0x20000b32bd38]
[r228n18:12736] [ 4] /lib64/power9/libc.so.6(gsignal+0xd8)[0x20000bb63798]
[r232n17:95471] [ 2] /lib64/power9/libc.so.6(abort+0x164)[0x20000bb43bac]
[r232n17:95471] [ 3] /cineca/prod/opt/compilers/gnu/8.4.0/none/lib64/libstdc++.so.6(_ZN9__gnu_cxx27__verbose_terminate_handlerEv+0x158)[0x20000b32bd38]
[r232n17:95471] [r232n18:13474] [ 1] /lib64/power9/libc.so.6(gsignal+0xd8)[0x20000bb63798]
[r232n18:13474] [ 2] /lib64/power9/libc.so.6(abort+0x164)[0x20000bb43bac]
[r232n18:13474] [ 3] /cineca/prod/opt/compilers/gnu/8.4.0/none/lib64/libstdc++.so.6(_ZN9__gnu_cxx27__verbose_terminate_handlerEv+0x158)[0x20000b32bd38]
[r232n18:13474] [ 4] /cineca/prod/opt/compilers/gnu/8.4.0/none/lib64/libstdc++.so.6(+0xb6c44)[0x20000b326c44]
[r232n18:13474] [ 5] terminate called after throwing an instance of 'std::runtime_error'
  what():  cudaGetDeviceCount(&m_cudaDevCount) error( cudaErrorNoDevice): no CUDA-capable device is detected ../../lib/kokkos/core/src/Cuda/Kokkos_Cuda_Instance.cpp:224
Traceback functionality not available

[r228n18:12739] *** Process received signal ***
[r228n18:12739] Signal: Aborted (6)
[r228n18:12739] Signal code:  (-6)
[r228n18:12739] [ 0] linux-vdso64.so.1(__kernel_sigtramp_rt64+0x0)[0x2000000504d8]
[r228n18:12739] [ 1] /lib64/power9/libc.so.6(gsignal+0xd8)[0x20000bb63798]
[r228n18:12739] [ 2] /lib64/power9/libc.so.6(abort+0x164)[0x20000bb43bac]
[r228n18:12739] [ 3] /cineca/prod/opt/compilers/gnu/8.4.0/none/lib64/libstdc++.so.6(_ZN9__gnu_cxx27__verbose_terminate_handlerEv+0x158)[0x20000b32bd38]
[r228n18:12739] [ 4] terminate called after throwing an instance of 'std::runtime_error'
  what():  cudaGetDeviceCount(&m_cudaDevCount) error( cudaErrorNoDevice): no CUDA-capable device is detected ../../lib/kokkos/core/src/Cuda/Kokkos_Cuda_Instance.cpp:224
Traceback functionality not available

[r232n17:95439] *** Process received signal ***
[r232n17:95439] Signal: Aborted (6)
[r232n17:95439] Signal code:  (-6)
[r232n17:95439] [ 0] linux-vdso64.so.1(__kernel_sigtramp_rt64+0x0)[0x2000000504d8]
[r232n17:95439] [ 1] /lib64/power9/libc.so.6(gsignal+0xd8)[0x20000bb63798]
[r232n17:95439] [ 2] /lib64/power9/libc.so.6(abort+0x164)[0x20000bb43bac]
[r232n17:95439] [ 3] /cineca/prod/opt/compilers/gnu/8.4.0/none/lib64/libstdc++.so.6(_ZN9__gnu_cxx27__verbose_terminate_handlerEv+0x158)[0x20000b32bd38]
[r232n18:13469] [ 4] /cineca/prod/opt/compilers/gnu/8.4.0/none/lib64/libstdc++.so.6(+0xb6c44)[0x20000b326c44]
[r232n18:13469] [ 5] terminate called after throwing an instance of 'std::runtime_error'
  what():  cudaGetDeviceCount(&m_cudaDevCount) error( cudaErrorNoDevice): no CUDA-capable device is detected ../../lib/kokkos/core/src/Cuda/Kokkos_Cuda_Instance.cpp:224
Traceback functionality not available

[r228n18:12743] *** Process received signal ***
[r228n18:12743] Signal: Aborted (6)
[r228n18:12743] Signal code:  (-6)
[r228n18:12743] [ 0] linux-vdso64.so.1(__kernel_sigtramp_rt64+0x0)[0x2000000504d8]
[r228n18:12743] [ 1] /lib64/power9/libc.so.6(gsignal+0xd8)[0x20000bb63798]
[r228n18:12743] [ 2] terminate called after throwing an instance of 'std::runtime_error'
  what():  cudaGetDeviceCount(&m_cudaDevCount) error( cudaErrorNoDevice): no CUDA-capable device is detected ../../lib/kokkos/core/src/Cuda/Kokkos_Cuda_Instance.cpp:224
Traceback functionality not available

[r232n17:95444] *** Process received signal ***
[r232n17:95444] Signal: Aborted (6)
[r232n17:95444] Signal code:  (-6)
[r232n17:95444] [ 0] linux-vdso64.so.1(__kernel_sigtramp_rt64+0x0)[0x2000000504d8]
[r232n17:95444] [ 1] /lib64/power9/libc.so.6(gsignal+0xd8)[0x20000bb63798]
[r232n17:95444] [ 2] /lib64/power9/libc.so.6(abort+0x164)[0x20000bb43bac]
[r232n17:95444] [ 3] /cineca/prod/opt/compilers/gnu/8.4.0/none/lib64/libstdc++.so.6(+0xb6c44)[0x20000b326c44]
[r232n18:13473] [ 5] /cineca/prod/opt/compilers/gnu/8.4.0/none/lib64/libstdc++.so.6(_ZSt9terminatev+0x20)[0x20000b326d00]
[r232n18:13473] [ 6] /cineca/prod/opt/compilers/gnu/8.4.0/none/lib64/libstdc++.so.6(__cxa_throw+0x7c)[0x20000b3271dc]
[r232n18:13473] [ 7] terminate called after throwing an instance of 'std::runtime_error'
  what():  cudaGetDeviceCount(&m_cudaDevCount) error( cudaErrorNoDevice): no CUDA-capable device is detected ../../lib/kokkos/core/src/Cuda/Kokkos_Cuda_Instance.cpp:224
Traceback functionality not available

[r228n18:12757] *** Process received signal ***
[r228n18:12757] Signal: Aborted (6)
[r228n18:12757] Signal code:  (-6)
[r228n18:12757] [ 0] linux-vdso64.so.1(__kernel_sigtramp_rt64+0x0)[0x2000000504d8]
[r228n18:12757] [ 1] /lib64/power9/libc.so.6(gsignal+0xd8)[0x20000bb63798]
[r228n18:12757] [ 2] /lib64/power9/libc.so.6(abort+0x164)[0x20000bb43bac]
[r228n18:12757] [ 3] /cineca/prod/opt/compilers/gnu/8.4.0/none/lib64/libstdc++.so.6(_ZN9__gnu_cxx27__verbose_terminate_handlerEv+0x158)[0x20000b32bd38]
[r228n18:12757] [ 4] terminate called after throwing an instance of 'std::runtime_error'
  what():  cudaGetDeviceCount(&m_cudaDevCount) error( cudaErrorNoDevice): no CUDA-capable device is detected ../../lib/kokkos/core/src/Cuda/Kokkos_Cuda_Instance.cpp:224
Traceback functionality not available

[r232n17:95451] *** Process received signal ***
[r232n17:95451] Signal: Aborted (6)
[r232n17:95451] Signal code:  (-6)
[r232n17:95451] [ 0] linux-vdso64.so.1(__kernel_sigtramp_rt64+0x0)[0x2000000504d8]
[r232n17:95451] [ 1] /lib64/power9/libc.so.6(gsignal+0xd8)[0x20000bb63798]
[r232n17:95451] [ 2] /lib64/power9/libc.so.6(abort+0x164)[0x20000bb43bac]
[r232n17:95451] [ 3] /cineca/prod/opt/compilers/gnu/8.4.0/none/lib64/libstdc++.so.6(_ZN9__gnu_cxx27__verbose_terminate_handlerEv+0x158)[0x20000b32bd38]
[r232n18:13475] [ 4] /cineca/prod/opt/compilers/gnu/8.4.0/none/lib64/libstdc++.so.6(+0xb6c44)[0x20000b326c44]
[r232n18:13475] [ 5] /cineca/prod/opt/compilers/gnu/8.4.0/none/lib64/libstdc++.so.6(_ZSt9terminatev+0x20)[0x20000b326d00]
[r232n18:13475] [ 6] terminate called after throwing an instance of 'std::runtime_error'
  what():  cudaGetDeviceCount(&m_cudaDevCount) error( cudaErrorNoDevice): no CUDA-capable device is detected ../../lib/kokkos/core/src/Cuda/Kokkos_Cuda_Instance.cpp:224
Traceback functionality not available

[r228n18:12761] *** Process received signal ***
[r228n18:12761] Signal: Aborted (6)
[r228n18:12761] Signal code:  (-6)
[r228n18:12761] [ 0] linux-vdso64.so.1(__kernel_sigtramp_rt64+0x0)[0x2000000504d8]
[r228n18:12761] [ 1] /lib64/power9/libc.so.6(gsignal+0xd8)[0x20000bb63798]
[r228n18:12761] [ 2] /lib64/power9/libc.so.6(abort+0x164)[0x20000bb43bac]
[r228n18:12761] [ 3] terminate called after throwing an instance of 'std::runtime_error'
  what():  cudaGetDeviceCount(&m_cudaDevCount) error( cudaErrorNoDevice): no CUDA-capable device is detected ../../lib/kokkos/core/src/Cuda/Kokkos_Cuda_Instance.cpp:224
Traceback functionality not available

[r232n17:95450] *** Process received signal ***
[r232n17:95450] Signal: Aborted (6)
[r232n17:95450] Signal code:  (-6)
[r232n17:95450] [ 0] linux-vdso64.so.1(__kernel_sigtramp_rt64+0x0)[0x2000000504d8]
[r232n17:95450] [ 1] /lib64/power9/libc.so.6(gsignal+0xd8)[0x20000bb63798]
[r232n17:95450] [ 2] /lib64/power9/libc.so.6(abort+0x164)[0x20000bb43bac]
[r232n17:95450] [ 3] /cineca/prod/opt/compilers/gnu/8.4.0/none/lib64/libstdc++.so.6(_ZN9__gnu_cxx27__verbose_terminate_handlerEv+0x158)[0x20000b32bd38]
[r232n17:95450] [ 4] /cineca/prod/opt/compilers/gnu/8.4.0/none/lib64/libstdc++.so.6(+0xb6c44)[0x20000b326c44]
[r232n17:95450] [ 5] terminate called after throwing an instance of 'std::runtime_error'
  what():  cudaGetDeviceCount(&m_cudaDevCount) error( cudaErrorNoDevice): no CUDA-capable device is detected ../../lib/kokkos/core/src/Cuda/Kokkos_Cuda_Instance.cpp:224
Traceback functionality not available

[r232n18:13471] *** Process received signal ***
[r232n18:13471] Signal: Aborted (6)
[r232n18:13471] Signal code:  (-6)
[r232n18:13471] [ 0] linux-vdso64.so.1(__kernel_sigtramp_rt64+0x0)[0x2000000504d8]
[r232n18:13471] [ 1] /lib64/power9/libc.so.6(gsignal+0xd8)[0x20000bb63798]
[r232n18:13471] [ 2] /lib64/power9/libc.so.6(abort+0x164)[0x20000bb43bac]
[r232n18:13471] [ 3] /lib64/power9/libc.so.6(abort+0x164)[0x20000bb43bac]
[r228n18:12743] [ 3] /cineca/prod/opt/compilers/gnu/8.4.0/none/lib64/libstdc++.so.6(_ZN9__gnu_cxx27__verbose_terminate_handlerEv+0x158)[0x20000b32bd38]
[r228n18:12743] [ 4] /cineca/prod/opt/compilers/gnu/8.4.0/none/lib64/libstdc++.so.6(+0xb6c44)[0x20000b326c44]
[r228n18:12743] [ 5] [ 4] /cineca/prod/opt/compilers/gnu/8.4.0/none/lib64/libstdc++.so.6(+0xb6c44)[0x20000b326c44]
[r232n17:95471] [ 5] /cineca/prod/opt/compilers/gnu/8.4.0/none/lib64/libstdc++.so.6(_ZSt9terminatev+0x20)[0x20000b326d00]
[r232n17:95471] [ 6] terminate called after throwing an instance of 'std::runtime_error'
  what():  cudaGetDeviceCount(&m_cudaDevCount) error( cudaErrorNoDevice): no CUDA-capable device is detected ../../lib/kokkos/core/src/Cuda/Kokkos_Cuda_Instance.cpp:224
Traceback functionality not available

terminate called after throwing an instance of 'std::runtime_error'
  what():  cudaGetDeviceCount(&m_cudaDevCount) error( cudaErrorNoDevice): no CUDA-capable device is detected ../../lib/kokkos/core/src/Cuda/Kokkos_Cuda_Instance.cpp:224
Traceback functionality not available

[r228n18:12732] *** Process received signal ***
[r228n18:12732] Signal: Aborted (6)
[r228n18:12732] Signal code:  (-6)
[r228n18:12732] [ 0] linux-vdso64.so.1(__kernel_sigtramp_rt64+0x0)[0x2000000504d8]
[r228n18:12732] [ 1] /lib64/power9/libc.so.6(gsignal+0xd8)[0x20000bb63798]
[r228n18:12732] [ 2] /lib64/power9/libc.so.6(abort+0x164)[0x20000bb43bac]
[r228n18:12732] [ 3] /cineca/prod/opt/compilers/gnu/8.4.0/none/lib64/libstdc++.so.6(_ZN9__gnu_cxx27__verbose_terminate_handlerEv+0x158)[0x20000b32bd38]
[r228n18:12732] [ 4] /cineca/prod/opt/compilers/gnu/8.4.0/none/lib64/libstdc++.so.6(+0xb6c44)[0x20000b326c44]
[r228n18:12732] [ 5] /cineca/prod/opt/compilers/gnu/8.4.0/none/lib64/libstdc++.so.6(_ZSt9terminatev+0x20)[0x20000b326d00]
[r228n18:12732] [ 6] terminate called after throwing an instance of 'std::runtime_error'
  what():  cudaGetDeviceCount(&m_cudaDevCount) error( cudaErrorNoDevice): no CUDA-capable device is detected ../../lib/kokkos/core/src/Cuda/Kokkos_Cuda_Instance.cpp:224
Traceback functionality not available

[r232n17:95443] *** Process received signal ***
[r232n17:95443] Signal: Aborted (6)
[r232n17:95443] Signal code:  (-6)
[r232n17:95443] [ 0] linux-vdso64.so.1(__kernel_sigtramp_rt64+0x0)[0x2000000504d8]
terminate called after throwing an instance of 'std::runtime_error'
  what():  cudaGetDeviceCount(&m_cudaDevCount) error( cudaErrorNoDevice): no CUDA-capable device is detected ../../lib/kokkos/core/src/Cuda/Kokkos_Cuda_Instance.cpp:224
Traceback functionality not available

[r232n18:13478] *** Process received signal ***
[r232n18:13478] Signal: Aborted (6)
[r232n18:13478] Signal code:  (-6)
[r232n18:13478] [ 0] linux-vdso64.so.1(__kernel_sigtramp_rt64+0x0)[0x2000000504d8]
[r232n18:13478] [ 1] /lib64/power9/libc.so.6(gsignal+0xd8)[0x20000bb63798]
[r232n18:13478] [ 2] /lib64/power9/libc.so.6(abort+0x164)[0x20000bb43bac]
[r232n18:13478] [ 3] /cineca/prod/opt/compilers/gnu/8.4.0/none/lib64/libstdc++.so.6(_ZN9__gnu_cxx27__verbose_terminate_handlerEv+0x158)[0x20000b32bd38]
[r232n18:13478] [ 4] /cineca/prod/opt/compilers/gnu/8.4.0/none/lib64/libstdc++.so.6(+0xb6c44)[0x20000b326c44]
[r232n18:13478] /cineca/prod/opt/compilers/gnu/8.4.0/none/lib64/libstdc++.so.6(_ZN9__gnu_cxx27__verbose_terminate_handlerEv+0x158)[0x20000b32bd38]
[r228n18:12731] [ 4] /cineca/prod/opt/compilers/gnu/8.4.0/none/lib64/libstdc++.so.6(+0xb6c44)[0x20000b326c44]
[r228n18:12731] [ 5] /cineca/prod/opt/compilers/gnu/8.4.0/none/lib64/libstdc++.so.6(_ZSt9terminatev+0x20)[0x20000b326d00]
[r228n18:12731] [ 6] /cineca/prod/opt/compilers/gnu/8.4.0/none/lib64/libstdc++.so.6(__cxa_throw+0x7c)[0x20000b3271dc]
[r228n18:12731] [ 7] terminate called after throwing an instance of 'std::runtime_error'
  what():  cudaGetDeviceCount(&m_cudaDevCount) error( cudaErrorNoDevice): no CUDA-capable device is detected ../../lib/kokkos/core/src/Cuda/Kokkos_Cuda_Instance.cpp:224
Traceback functionality not available

[r232n17:95440] *** Process received signal ***
[r232n17:95440] Signal: Aborted (6)
[r232n17:95440] Signal code:  (-6)
[r232n17:95440] [ 0] linux-vdso64.so.1(__kernel_sigtramp_rt64+0x0)[0x2000000504d8]
[r232n17:95440] [ 1] /lib64/power9/libc.so.6(gsignal+0xd8)[0x20000bb63798]
[r232n17:95440] [ 2] /lib64/power9/libc.so.6(abort+0x164)[0x20000bb43bac]
[r232n17:95440] [ 3] [r232n18:13476] *** Process received signal ***
[r232n18:13476] Signal: Aborted (6)
[r232n18:13476] Signal code:  (-6)
[r232n18:13476] [ 0] linux-vdso64.so.1(__kernel_sigtramp_rt64+0x0)[0x2000000504d8]
[r232n18:13476] [ 1] /lib64/power9/libc.so.6(gsignal+0xd8)[0x20000bb63798]
[r232n18:13476] [ 2] /lib64/power9/libc.so.6(abort+0x164)[0x20000bb43bac]
[r232n18:13476] [ 3] /cineca/prod/opt/compilers/gnu/8.4.0/none/lib64/libstdc++.so.6(_ZN9__gnu_cxx27__verbose_terminate_handlerEv+0x158)[0x20000b32bd38]
[r232n18:13476] [ 4] terminate called after throwing an instance of 'std::runtime_error'
  what():  cudaGetDeviceCount(&m_cudaDevCount) error( cudaErrorNoDevice): no CUDA-capable device is detected ../../lib/kokkos/core/src/Cuda/Kokkos_Cuda_Instance.cpp:224
Traceback functionality not available

[r228n18:12734] *** Process received signal ***
[r228n18:12734] Signal: Aborted (6)
[r228n18:12734] Signal code:  (-6)
[r228n18:12734] [ 0] linux-vdso64.so.1(__kernel_sigtramp_rt64+0x0)[0x2000000504d8]
[r228n18:12734] [ 1] terminate called after throwing an instance of 'std::runtime_error'
  what():  cudaGetDeviceCount(&m_cudaDevCount) error( cudaErrorNoDevice): no CUDA-capable device is detected ../../lib/kokkos/core/src/Cuda/Kokkos_Cuda_Instance.cpp:224
Traceback functionality not available

[r232n17:95465] *** Process received signal ***
[r232n17:95465] Signal: Aborted (6)
[r232n17:95465] Signal code:  (-6)
[r232n17:95465] [ 0] linux-vdso64.so.1(__kernel_sigtramp_rt64+0x0)[0x2000000504d8]
[r232n17:95465] [ 1] /lib64/power9/libc.so.6(gsignal+0xd8)[0x20000bb63798]
[r232n17:95465] [ 2] /lib64/power9/libc.so.6(abort+0x164)[0x20000bb43bac]
[r232n17:95465] [ 3] /cineca/prod/opt/compilers/gnu/8.4.0/none/lib64/libstdc++.so.6(_ZSt9terminatev+0x20)[0x20000b326d00]
[r232n18:13474] [ 6] /cineca/prod/opt/compilers/gnu/8.4.0/none/lib64/libstdc++.so.6(__cxa_throw+0x7c)[0x20000b3271dc]
[r232n18:13474] [ 7] /cineca/prod/opt/compilers/gnu/8.4.0/none/lib64/libstdc++.so.6(+0xb6c44)[0x20000b326c44]
[r228n18:12758] [ 5] /cineca/prod/opt/compilers/gnu/8.4.0/none/lib64/libstdc++.so.6(_ZSt9terminatev+0x20)[0x20000b326d00]
[r228n18:12758] [ 6] /cineca/prod/opt/compilers/gnu/8.4.0/none/lib64/libstdc++.so.6(__cxa_throw+0x7c)[0x20000b3271dc]
[r228n18:12758] [ 7] /cineca/prod/opt/compilers/gnu/8.4.0/none/lib64/libstdc++.so.6(_ZN9__gnu_cxx27__verbose_terminate_handlerEv+0x158)[0x20000b32bd38]
[r232n17:95439] [ 4] /cineca/prod/opt/compilers/gnu/8.4.0/none/lib64/libstdc++.so.6(+0xb6c44)[0x20000b326c44]
[r232n17:95439] [ 5] /cineca/prod/opt/compilers/gnu/8.4.0/none/lib64/libstdc++.so.6(_ZSt9terminatev+0x20)[0x20000b326d00]
[r232n17:95439] [ 6] /cineca/prod/opt/compilers/gnu/8.4.0/none/lib64/libstdc++.so.6(__cxa_throw+0x7c)[0x20000b3271dc]
terminate called after throwing an instance of 'std::runtime_error'
  what():  cudaGetDeviceCount(&m_cudaDevCount) error( cudaErrorNoDevice): no CUDA-capable device is detected ../../lib/kokkos/core/src/Cuda/Kokkos_Cuda_Instance.cpp:224
Traceback functionality not available

[r232n18:13447] *** Process received signal ***
[r232n18:13447] Signal: Aborted (6)
[r232n18:13447] Signal code:  (-6)
[r232n18:13447] [ 0] linux-vdso64.so.1(__kernel_sigtramp_rt64+0x0)[0x2000000504d8]
[r232n18:13447] [ 1] /lib64/power9/libc.so.6(gsignal+0xd8)[0x20000bb63798]
[r232n18:13447] [ 2] terminate called after throwing an instance of 'std::runtime_error'
  what():  cudaGetDeviceCount(&m_cudaDevCount) error( cudaErrorNoDevice): no CUDA-capable device is detected ../../lib/kokkos/core/src/Cuda/Kokkos_Cuda_Instance.cpp:224
Traceback functionality not available

[r228n18:12735] *** Process received signal ***
[r228n18:12735] Signal: Aborted (6)
[r228n18:12735] Signal code:  (-6)
[r228n18:12735] [ 0] linux-vdso64.so.1(__kernel_sigtramp_rt64+0x0)[0x2000000504d8]
[r228n18:12735] [ 1] /cineca/prod/opt/compilers/gnu/8.4.0/none/lib64/libstdc++.so.6(_ZN9__gnu_cxx27__verbose_terminate_handlerEv+0x158)[0x20000b32bd38]
[r232n17:95444] [ 4] /cineca/prod/opt/compilers/gnu/8.4.0/none/lib64/libstdc++.so.6(+0xb6c44)[0x20000b326c44]
[r232n17:95444] [ 5] /cineca/prod/opt/compilers/gnu/8.4.0/none/lib64/libstdc++.so.6(_ZSt9terminatev+0x20)[0x20000b326d00]
[r232n17:95444] [ 6] terminate called after throwing an instance of 'std::runtime_error'
  what():  cudaGetDeviceCount(&m_cudaDevCount) error( cudaErrorNoDevice): no CUDA-capable device is detected ../../lib/kokkos/core/src/Cuda/Kokkos_Cuda_Instance.cpp:224
Traceback functionality not available

[r232n18:13449] *** Process received signal ***
[r232n18:13449] Signal: Aborted (6)
[r232n18:13449] Signal code:  (-6)
[r232n18:13449] [ 0] linux-vdso64.so.1(__kernel_sigtramp_rt64+0x0)[0x2000000504d8]
[r232n18:13449] [ 1] /cineca/prod/opt/compilers/gnu/8.4.0/none/lib64/libstdc++.so.6(_ZN9__gnu_cxx27__verbose_terminate_handlerEv+0x158)[0x20000b32bd38]
[r228n18:12738] [ 4] /cineca/prod/opt/compilers/gnu/8.4.0/none/lib64/libstdc++.so.6(+0xb6c44)[0x20000b326c44]
[r228n18:12738] [ 5] /cineca/prod/opt/compilers/gnu/8.4.0/none/lib64/libstdc++.so.6(_ZSt9terminatev+0x20)[0x20000b326d00]
[r228n18:12738] [ 6] /cineca/prod/opt/compilers/gnu/8.4.0/none/lib64/libstdc++.so.6(__cxa_throw+0x7c)[0x20000b3271dc]
[r228n18:12738] [ 7] /cineca/prod/opt/compilers/gnu/8.4.0/none/lib64/libstdc++.so.6(_ZN9__gnu_cxx27__verbose_terminate_handlerEv+0x158)[0x20000b32bd38]
[r232n17:95451] [ 4] /cineca/prod/opt/compilers/gnu/8.4.0/none/lib64/libstdc++.so.6(+0xb6c44)[0x20000b326c44]
[r232n17:95451] [ 5] /cineca/prod/opt/compilers/gnu/8.4.0/none/lib64/libstdc++.so.6(_ZN9__gnu_cxx27__verbose_terminate_handlerEv+0x158)[0x20000b32bd38]
[r232n18:13466] [ 4] /cineca/prod/opt/compilers/gnu/8.4.0/none/lib64/libstdc++.so.6(+0xb6c44)[0x20000b326c44]
[r232n18:13466] [ 5] /cineca/prod/opt/compilers/gnu/8.4.0/none/lib64/libstdc++.so.6(_ZSt9terminatev+0x20)[0x20000b326d00]
[r232n18:13466] [ 6] /cineca/prod/opt/compilers/gnu/8.4.0/none/lib64/libstdc++.so.6(__cxa_throw+0x7c)[0x20000b3271dc]
[r232n18:13466] [ 7] /cineca/prod/opt/compilers/gnu/8.4.0/none/lib64/libstdc++.so.6(_ZSt9terminatev+0x20)[0x20000b326d00]
[r228n18:12737] [ 6] /cineca/prod/opt/compilers/gnu/8.4.0/none/lib64/libstdc++.so.6(__cxa_throw+0x7c)[0x20000b3271dc]
[r228n18:12737] [ 7] terminate called after throwing an instance of 'std::runtime_error'
  what():  cudaGetDeviceCount(&m_cudaDevCount) error( cudaErrorNoDevice): no CUDA-capable device is detected ../../lib/kokkos/core/src/Cuda/Kokkos_Cuda_Instance.cpp:224
Traceback functionality not available

[r232n17:95452] *** Process received signal ***
[r232n17:95452] Signal: Aborted (6)
[r232n17:95452] Signal code:  (-6)
[r232n17:95452] [ 0] linux-vdso64.so.1(__kernel_sigtramp_rt64+0x0)[0x2000000504d8]
[r232n17:95452] [ 1] /lib64/power9/libc.so.6(gsignal+0xd8)[0x20000bb63798]
[r232n17:95452] [ 2] /lib64/power9/libc.so.6(abort+0x164)[0x20000bb43bac]
[r232n17:95452] [ 3] /cineca/prod/opt/compilers/gnu/8.4.0/none/lib64/libstdc++.so.6(_ZN9__gnu_cxx27__verbose_terminate_handlerEv+0x158)[0x20000b32bd38]
[r232n17:95452] [ 4] terminate called after throwing an instance of 'std::runtime_error'
  what():  cudaGetDeviceCount(&m_cudaDevCount) error( cudaErrorNoDevice): no CUDA-capable device is detected ../../lib/kokkos/core/src/Cuda/Kokkos_Cuda_Instance.cpp:224
Traceback functionality not available

[r232n18:13452] *** Process received signal ***
[r232n18:13452] Signal: Aborted (6)
[r232n18:13452] Signal code:  (-6)
[r232n18:13452] [ 0] linux-vdso64.so.1(__kernel_sigtramp_rt64+0x0)[0x2000000504d8]
[r232n18:13452] [ 1] /lib64/power9/libc.so.6(gsignal+0xd8)[0x20000bb63798]
[r232n18:13452] [ 2] terminate called after throwing an instance of 'std::runtime_error'
  what():  cudaGetDeviceCount(&m_cudaDevCount) error( cudaErrorNoDevice): no CUDA-capable device is detected ../../lib/kokkos/core/src/Cuda/Kokkos_Cuda_Instance.cpp:224
Traceback functionality not available

[r228n18:12742] *** Process received signal ***
[r228n18:12742] Signal: Aborted (6)
[r228n18:12742] Signal code:  (-6)
[r228n18:12742] [ 0] linux-vdso64.so.1(__kernel_sigtramp_rt64+0x0)[0x2000000504d8]
[r228n18:12742] [ 1] /lib64/power9/libc.so.6(gsignal+0xd8)[0x20000bb63798]
[r228n18:12742] [ 2] /lib64/power9/libc.so.6(abort+0x164)[0x20000bb43bac]
[r228n18:12742] [ 3] /cineca/prod/opt/compilers/gnu/8.4.0/none/lib64/libstdc++.so.6(_ZN9__gnu_cxx27__verbose_terminate_handlerEv+0x158)[0x20000b32bd38]
[r228n18:12742] [ 4] /cineca/prod/opt/compilers/gnu/8.4.0/none/lib64/libstdc++.so.6(+0xb6c44)[0x20000b326c44]
[r228n18:12742] [ 5] terminate called after throwing an instance of 'std::runtime_error'
  what():  cudaGetDeviceCount(&m_cudaDevCount) error( cudaErrorNoDevice): no CUDA-capable device is detected ../../lib/kokkos/core/src/Cuda/Kokkos_Cuda_Instance.cpp:224
Traceback functionality not available

[r232n17:95448] *** Process received signal ***
[r232n17:95448] Signal: Aborted (6)
[r232n17:95448] Signal code:  (-6)
[r232n17:95448] [ 0] linux-vdso64.so.1(__kernel_sigtramp_rt64+0x0)[0x2000000504d8]
[r232n17:95448] [ 1] /cineca/prod/opt/compilers/gnu/8.4.0/none/lib64/libstdc++.so.6(_ZN9__gnu_cxx27__verbose_terminate_handlerEv+0x158)[0x20000b32bd38]
[r232n18:13454] [ 4] /cineca/prod/opt/compilers/gnu/8.4.0/none/lib64/libstdc++.so.6(+0xb6c44)[0x20000b326c44]
[r232n18:13454] [ 5] /cineca/prod/opt/compilers/gnu/8.4.0/none/lib64/libstdc++.so.6(_ZSt9terminatev+0x20)[0x20000b326d00]
[r232n18:13454] [ 6] /cineca/prod/opt/compilers/gnu/8.4.0/none/lib64/libstdc++.so.6(__cxa_throw+0x7c)[0x20000b3271dc]
[r232n18:13454] [ 7] /cineca/prod/opt/compilers/gnu/8.4.0/none/lib64/libstdc++.so.6(+0xb6c44)[0x20000b326c44]
[r228n18:12736] [ 5] /cineca/prod/opt/compilers/gnu/8.4.0/none/lib64/libstdc++.so.6(_ZSt9terminatev+0x20)[0x20000b326d00]
[r228n18:12736] [ 6] /cineca/prod/opt/compilers/gnu/8.4.0/none/lib64/libstdc++.so.6(__cxa_throw+0x7c)[0x20000b3271dc]
[r228n18:12736] [ 7] terminate called after throwing an instance of 'std::runtime_error'
  what():  cudaGetDeviceCount(&m_cudaDevCount) error( cudaErrorNoDevice): no CUDA-capable device is detected ../../lib/kokkos/core/src/Cuda/Kokkos_Cuda_Instance.cpp:224
Traceback functionality not available

[r232n17:95458] *** Process received signal ***
[r232n17:95458] Signal: Aborted (6)
[r232n17:95458] Signal code:  (-6)
[r232n17:95458] [ 0] linux-vdso64.so.1(__kernel_sigtramp_rt64+0x0)[0x2000000504d8]
[r232n17:95458] [ 1] /lib64/power9/libc.so.6(gsignal+0xd8)[0x20000bb63798]
[r232n17:95458] [ 2] /lib64/power9/libc.so.6(abort+0x164)[0x20000bb43bac]
[r232n17:95458] [ 3] /cineca/prod/opt/compilers/gnu/8.4.0/none/lib64/libstdc++.so.6(_ZN9__gnu_cxx27__verbose_terminate_handlerEv+0x158)[0x20000b32bd38]
[r232n17:95458] [ 4] terminate called after throwing an instance of 'std::runtime_error'
  what():  cudaGetDeviceCount(&m_cudaDevCount) error( cudaErrorNoDevice): no CUDA-capable device is detected ../../lib/kokkos/core/src/Cuda/Kokkos_Cuda_Instance.cpp:224
Traceback functionality not available

[r232n18:13458] *** Process received signal ***
[r232n18:13458] Signal: Aborted (6)
[r232n18:13458] Signal code:  (-6)
[r232n18:13458] [ 0] linux-vdso64.so.1(__kernel_sigtramp_rt64+0x0)[0x2000000504d8]
[r232n18:13458] [ 1] /lib64/power9/libc.so.6(gsignal+0xd8)[0x20000bb63798]
[r232n18:13458] [ 2] /lib64/power9/libc.so.6(abort+0x164)[0x20000bb43bac]
[r232n18:13458] [ 3] /cineca/prod/opt/compilers/gnu/8.4.0/none/lib64/libstdc++.so.6(_ZN9__gnu_cxx27__verbose_terminate_handlerEv+0x158)[0x20000b32bd38]
[r232n18:13458] [ 4] /cineca/prod/opt/compilers/gnu/8.4.0/none/lib64/libstdc++.so.6(+0xb6c44)[0x20000b326c44]
[r232n18:13458] [ 5] /cineca/prod/opt/compilers/gnu/8.4.0/none/lib64/libstdc++.so.6(_ZSt9terminatev+0x20)[0x20000b326d00]
[r232n18:13458] [ 6] terminate called after throwing an instance of 'std::runtime_error'
  what():  cudaGetDeviceCount(&m_cudaDevCount) error( cudaErrorNoDevice): no CUDA-capable device is detected ../../lib/kokkos/core/src/Cuda/Kokkos_Cuda_Instance.cpp:224
Traceback functionality not available

[r228n18:12740] *** Process received signal ***
[r228n18:12740] Signal: Aborted (6)
[r228n18:12740] Signal code:  (-6)
[r228n18:12740] [ 0] linux-vdso64.so.1(__kernel_sigtramp_rt64+0x0)[0x2000000504d8]
[r228n18:12740] [ 1] /lib64/power9/libc.so.6(gsignal+0xd8)[0x20000bb63798]
[r228n18:12740] [ 2] /lib64/power9/libc.so.6(abort+0x164)[0x20000bb43bac]
[r228n18:12740] [ 3] /cineca/prod/opt/compilers/gnu/8.4.0/none/lib64/libstdc++.so.6(_ZN9__gnu_cxx27__verbose_terminate_handlerEv+0x158)[0x20000b32bd38]
[r228n18:12740] [ 4] /cineca/prod/opt/compilers/gnu/8.4.0/none/lib64/libstdc++.so.6(+0xb6c44)[0x20000b326c44]
[...]
lmp_kokkos_cuda_mpi(_ZN9LAMMPS_NS6LAMMPSC2EiPPcP19ompi_communicator_t+0x3728)[0x11099d08]
[r228n18:12747] [16] lmp_kokkos_cuda_mpi(_ZN9LAMMPS_NS6LAMMPSC2EiPPcP19ompi_communicator_t+0x3728)[0x11099d08]
[r232n17:95451] [16] lmp_kokkos_cuda_mpi(_ZN9LAMMPS_NS9KokkosLMP10initializeEN6Kokkos13InitArgumentsEPNS_5ErrorE+0x104)[0x10dcae14]
[r232n18:13450] [14] lmp_kokkos_cuda_mpi(_ZN9LAMMPS_NS9KokkosLMPC1EPNS_6LAMMPSEiPPc+0x95c)[0x10dccf4c]
[r228n18:12748] [15] lmp_kokkos_cuda_mpi(_ZN9LAMMPS_NS6LAMMPSC2EiPPcP19ompi_communicator_t+0x3728)[0x11099d08]
[r232n17:95440] [16] lmp_kokkos_cuda_mpi(main+0x60)[0x1086af40]
[r232n18:13448] [17] /lib64/power9/libc.so.6(+0x241f8)[0x20000bb441f8]
[r232n18:13448] [18] /lib64/power9/libc.so.6(__libc_start_main+0xb4)[0x20000bb443e4]
[r232n18:13448] *** End of error message ***
lmp_kokkos_cuda_mpi(_ZN9LAMMPS_NS6LAMMPSC2EiPPcP19ompi_communicator_t+0x3728)[0x11099d08]
[r228n18:12742] [16] lmp_kokkos_cuda_mpi(_ZN9LAMMPS_NS6LAMMPSC2EiPPcP19ompi_communicator_t+0x3728)[0x11099d08]
[r232n17:95465] [16] lmp_kokkos_cuda_mpi(main+0x60)[0x1086af40]
[r232n18:13461] [17] /lib64/power9/libc.so.6(+0x241f8)[0x20000bb441f8]
[r232n18:13461] [18] /lib64/power9/libc.so.6(__libc_start_main+0xb4)[0x20000bb443e4]
[r232n18:13461] *** End of error message ***
lmp_kokkos_cuda_mpi(main+0x60)[0x1086af40]
[r228n18:12734] [17] /lib64/power9/libc.so.6(+0x241f8)[0x20000bb441f8]
[r228n18:12734] [18] /lib64/power9/libc.so.6(__libc_start_main+0xb4)[0x20000bb443e4]
[r228n18:12734] *** End of error message ***
lmp_kokkos_cuda_mpi(main+0x60)[0x1086af40]
[r232n17:95471] [17] /lib64/power9/libc.so.6(+0x241f8)[0x20000bb441f8]
[r232n17:95471] [18] lmp_kokkos_cuda_mpi(main+0x60)[0x1086af40]
[r232n18:13456] [17] /lib64/power9/libc.so.6(+0x241f8)[0x20000bb441f8]
[r232n18:13456] [18] /lib64/power9/libc.so.6(__libc_start_main+0xb4)[0x20000bb443e4]
[r232n18:13456] *** End of error message ***
lmp_kokkos_cuda_mpi(_ZN9LAMMPS_NS6LAMMPSC2EiPPcP19ompi_communicator_t+0x3728)[0x11099d08]
[r228n18:12752] [16] lmp_kokkos_cuda_mpi(_ZN9LAMMPS_NS9KokkosLMPC1EPNS_6LAMMPSEiPPc+0x95c)[0x10dccf4c]
[r232n17:95459] [15] lmp_kokkos_cuda_mpi(main+0x60)[0x1086af40]
[r232n18:13459] [17] /lib64/power9/libc.so.6(+0x241f8)[0x20000bb441f8]
[r232n18:13459] [18] /lib64/power9/libc.so.6(__libc_start_main+0xb4)[0x20000bb443e4]
[r232n18:13459] *** End of error message ***
lmp_kokkos_cuda_mpi(main+0x60)[0x1086af40]
[r228n18:12747] [17] /lib64/power9/libc.so.6(+0x241f8)[0x20000bb441f8]
/lib64/power9/libc.so.6(__libc_start_main+0xb4)[0x20000bb443e4]
[r232n17:95471] *** End of error message ***
lmp_kokkos_cuda_mpi(main+0x60)[0x1086af40]
[r232n18:13478] [17] /lib64/power9/libc.so.6(+0x241f8)[0x20000bb441f8]
[r232n18:13478] [18] /lib64/power9/libc.so.6(__libc_start_main+0xb4)[0x20000bb443e4]
[r232n18:13478] *** End of error message ***
[r228n18:12747] [18] /lib64/power9/libc.so.6(__libc_start_main+0xb4)[0x20000bb443e4]
[r228n18:12747] *** End of error message ***
lmp_kokkos_cuda_mpi(_ZN9LAMMPS_NS9KokkosLMPC1EPNS_6LAMMPSEiPPc+0x95c)[0x10dccf4c]
[r232n17:95454] [15] lmp_kokkos_cuda_mpi(main+0x60)[0x1086af40]
[r232n18:13471] [17] /lib64/power9/libc.so.6(+0x241f8)[0x20000bb441f8]
[r232n18:13471] [18] /lib64/power9/libc.so.6(__libc_start_main+0xb4)[0x20000bb443e4]
[r232n18:13471] *** End of error message ***
lmp_kokkos_cuda_mpi(_ZN9LAMMPS_NS9KokkosLMPC1EPNS_6LAMMPSEiPPc+0x95c)[0x10dccf4c]
[r228n18:12735] [15] lmp_kokkos_cuda_mpi(_ZN9LAMMPS_NS9KokkosLMPC1EPNS_6LAMMPSEiPPc+0x95c)[0x10dccf4c]
[r228n18:12754] [15] lmp_kokkos_cuda_mpi(main+0x60)[0x1086af40]
[r232n17:95443] [17] /lib64/power9/libc.so.6(+0x241f8)[0x20000bb441f8]
[r232n17:95443] [18] lmp_kokkos_cuda_mpi(main+0x60)[0x1086af40]
[r232n18:13458] [17] /lib64/power9/libc.so.6(+0x241f8)[0x20000bb441f8]
[r232n18:13458] [18] /lib64/power9/libc.so.6(__libc_start_main+0xb4)[0x20000bb443e4]
[r232n18:13458] *** End of error message ***
/lib64/power9/libc.so.6(__libc_start_main+0xb4)[0x20000bb443e4]
[r232n17:95443] *** End of error message ***
lmp_kokkos_cuda_mpi(main+0x60)[0x1086af40]
[r232n18:13451] [17] /lib64/power9/libc.so.6(+0x241f8)[0x20000bb441f8]
[r232n18:13451] [18] /lib64/power9/libc.so.6(__libc_start_main+0xb4)[0x20000bb443e4]
[r232n18:13451] *** End of error message ***
lmp_kokkos_cuda_mpi(_ZN9LAMMPS_NS6LAMMPSC2EiPPcP19ompi_communicator_t+0x3728)[0x11099d08]
[r228n18:12739] [16] lmp_kokkos_cuda_mpi(main+0x60)[0x1086af40]
[r232n17:95470] [17] lmp_kokkos_cuda_mpi(main+0x60)[0x1086af40]
[r232n18:13464] [17] /lib64/power9/libc.so.6(+0x241f8)[0x20000bb441f8]
[r232n18:13464] [18] /lib64/power9/libc.so.6(__libc_start_main+0xb4)[0x20000bb443e4]
[r232n18:13464] *** End of error message ***
lmp_kokkos_cuda_mpi(_ZN9LAMMPS_NS6LAMMPSC2EiPPcP19ompi_communicator_t+0x3728)[0x11099d08]
[r228n18:12743] [16] /lib64/power9/libc.so.6(+0x241f8)[0x20000bb441f8]
[r232n17:95470] [18] lmp_kokkos_cuda_mpi(main+0x60)[0x1086af40]
[r232n18:13466] [17] /lib64/power9/libc.so.6(+0x241f8)[0x20000bb441f8]
[r232n18:13466] [18] /lib64/power9/libc.so.6(__libc_start_main+0xb4)[0x20000bb443e4]
[r232n18:13466] *** End of error message ***
lmp_kokkos_cuda_mpi(_ZN9LAMMPS_NS6LAMMPSC2EiPPcP19ompi_communicator_t+0x3728)[0x11099d08]
[r228n18:12760] [16] /lib64/power9/libc.so.6(__libc_start_main+0xb4)[0x20000bb443e4]
[r232n17:95470] *** End of error message ***
lmp_kokkos_cuda_mpi(_ZN9LAMMPS_NS9KokkosLMP10initializeEN6Kokkos13InitArgumentsEPNS_5ErrorE+0x104)[0x10dcae14]
[r232n18:13467] [14] lmp_kokkos_cuda_mpi(main+0x60)[0x1086af40]
[r228n18:12744] [17] /lib64/power9/libc.so.6(+0x241f8)[0x20000bb441f8]
[r228n18:12744] [18] lmp_kokkos_cuda_mpi(main+0x60)[0x1086af40]
[r232n17:95451] [17] lmp_kokkos_cuda_mpi(_ZN9LAMMPS_NS9KokkosLMPC1EPNS_6LAMMPSEiPPc+0x95c)[0x10dccf4c]
[r232n18:13454] [15] lmp_kokkos_cuda_mpi(_ZN9LAMMPS_NS6LAMMPSC2EiPPcP19ompi_communicator_t+0x3728)[0x11099d08]
[r228n18:12738] [16] lmp_kokkos_cuda_mpi(_ZN9LAMMPS_NS6LAMMPSC2EiPPcP19ompi_communicator_t+0x3728)[0x11099d08]
[r232n17:95437] [16] lmp_kokkos_cuda_mpi(_ZN9LAMMPS_NS9KokkosLMP10initializeEN6Kokkos13InitArgumentsEPNS_5ErrorE+0x104)[0x10dcae14]
[r232n18:13469] [14] lmp_kokkos_cuda_mpi(main+0x60)[0x1086af40]
[r228n18:12751] [17] /lib64/power9/libc.so.6(+0x241f8)[0x20000bb441f8]
[r228n18:12751] [18] /lib64/power9/libc.so.6(__libc_start_main+0xb4)[0x20000bb443e4]
[r228n18:12751] *** End of error message ***
lmp_kokkos_cuda_mpi(_ZN9LAMMPS_NS6LAMMPSC2EiPPcP19ompi_communicator_t+0x3728)[0x11099d08]
[r232n17:95457] [16] lmp_kokkos_cuda_mpi(main+0x60)[0x1086af40]
[r232n18:13475] [17] /lib64/power9/libc.so.6(+0x241f8)[0x20000bb441f8]
[r232n18:13475] [18] /lib64/power9/libc.so.6(__libc_start_main+0xb4)[0x20000bb443e4]
[r232n18:13475] *** End of error message ***
/lib64/power9/libc.so.6(__libc_start_main+0xb4)[0x20000bb443e4]
[r228n18:12744] *** End of error message ***
lmp_kokkos_cuda_mpi(main+0x60)[0x1086af40]
[r232n17:95440] [17] /lib64/power9/libc.so.6(+0x241f8)[0x20000bb441f8]
[r232n17:95440] [18] lmp_kokkos_cuda_mpi(main+0x60)[0x1086af40]
[r232n18:13473] [17] /lib64/power9/libc.so.6(+0x241f8)[0x20000bb441f8]
[r232n18:13473] [18] /lib64/power9/libc.so.6(__libc_start_main+0xb4)[0x20000bb443e4]
[r232n18:13473] *** End of error message ***
lmp_kokkos_cuda_mpi(main+0x60)[0x1086af40]
[r228n18:12752] [17] /lib64/power9/libc.so.6(+0x241f8)[0x20000bb441f8]
[r228n18:12752] [18] /lib64/power9/libc.so.6(__libc_start_main+0xb4)[0x20000bb443e4]
[r228n18:12752] *** End of error message ***
/lib64/power9/libc.so.6(__libc_start_main+0xb4)[0x20000bb443e4]
[r232n17:95440] *** End of error message ***
lmp_kokkos_cuda_mpi(main+0x60)[0x1086af40]
[r232n18:13462] [17] /lib64/power9/libc.so.6(+0x241f8)[0x20000bb441f8]
[r232n18:13462] [18] /lib64/power9/libc.so.6(__libc_start_main+0xb4)[0x20000bb443e4]
[r232n18:13462] *** End of error message ***
lmp_kokkos_cuda_mpi(main+0x60)[0x1086af40]
[r228n18:12742] [17] /lib64/power9/libc.so.6(+0x241f8)[0x20000bb441f8]
[r228n18:12742] [18] /lib64/power9/libc.so.6(__libc_start_main+0xb4)[0x20000bb443e4]
[r228n18:12742] *** End of error message ***
lmp_kokkos_cuda_mpi(main+0x60)[0x1086af40]
[r232n17:95465] [17] lmp_kokkos_cuda_mpi(_ZN9LAMMPS_NS9KokkosLMP10initializeEN6Kokkos13InitArgumentsEPNS_5ErrorE+0x104)[0x10dcae14]
[r232n18:13476] [14] lmp_kokkos_cuda_mpi(_ZN9LAMMPS_NS6LAMMPSC2EiPPcP19ompi_communicator_t+0x3728)[0x11099d08]
[r228n18:12748] [16] /lib64/power9/libc.so.6(+0x241f8)[0x20000bb441f8]
[r232n17:95451] [18] /lib64/power9/libc.so.6(__libc_start_main+0xb4)[0x20000bb443e4]
[r232n17:95451] *** End of error message ***
lmp_kokkos_cuda_mpi(main+0x60)[0x1086af40]
[r232n18:13474] [17] /lib64/power9/libc.so.6(+0x241f8)[0x20000bb441f8]
[r232n18:13474] [18] /lib64/power9/libc.so.6(__libc_start_main+0xb4)[0x20000bb443e4]
[r232n18:13474] *** End of error message ***
lmp_kokkos_cuda_mpi(_ZN9LAMMPS_NS6LAMMPSC2EiPPcP19ompi_communicator_t+0x3728)[0x11099d08]
[r228n18:12756] [16] /lib64/power9/libc.so.6(+0x241f8)[0x20000bb441f8]
[r232n17:95465] [18] /lib64/power9/libc.so.6(__libc_start_main+0xb4)[0x20000bb443e4]
[r232n17:95465] *** End of error message ***
lmp_kokkos_cuda_mpi(_ZN9LAMMPS_NS9KokkosLMPC1EPNS_6LAMMPSEiPPc+0x95c)[0x10dccf4c]
[r232n18:13468] [15] lmp_kokkos_cuda_mpi(main+0x60)[0x1086af40]
[r228n18:12738] [17] lmp_kokkos_cuda_mpi(_ZN9LAMMPS_NS6LAMMPSC2EiPPcP19ompi_communicator_t+0x3728)[0x11099d08]
[r232n17:95442] [16] lmp_kokkos_cuda_mpi(_ZN9LAMMPS_NS9KokkosLMP10initializeEN6Kokkos13InitArgumentsEPNS_5ErrorE+0x104)[0x10dcae14]
[r232n18:13465] [14] lmp_kokkos_cuda_mpi(main+0x60)[0x1086af40]
[r228n18:12760] [17] lmp_kokkos_cuda_mpi(_ZN9LAMMPS_NS6LAMMPSC2EiPPcP19ompi_communicator_t+0x3728)[0x11099d08]
[r232n17:95446] [16] lmp_kokkos_cuda_mpi(_ZN9LAMMPS_NS9KokkosLMPC1EPNS_6LAMMPSEiPPc+0x95c)[0x10dccf4c]
[r232n18:13450] [15] /lib64/power9/libc.so.6(+0x241f8)[0x20000bb441f8]
[r228n18:12738] [18] /lib64/power9/libc.so.6(__libc_start_main+0xb4)[0x20000bb443e4]
[r228n18:12738] *** End of error message ***
lmp_kokkos_cuda_mpi(_ZN9LAMMPS_NS6LAMMPSC2EiPPcP19ompi_communicator_t+0x3728)[0x11099d08]
[r232n17:95459] [16] lmp_kokkos_cuda_mpi(_ZN9LAMMPS_NS9KokkosLMP10initializeEN6Kokkos13InitArgumentsEPNS_5ErrorE+0x104)[0x10dcae14]
[r232n18:13472] [14] /lib64/power9/libc.so.6(+0x241f8)[0x20000bb441f8]
[r228n18:12760] [18] /lib64/power9/libc.so.6(__libc_start_main+0xb4)[0x20000bb443e4]
[r228n18:12760] *** End of error message ***
lmp_kokkos_cuda_mpi(_ZN9LAMMPS_NS6LAMMPSC2EiPPcP19ompi_communicator_t+0x3728)[0x11099d08]
[r232n17:95454] [16] lmp_kokkos_cuda_mpi(_ZN9LAMMPS_NS9KokkosLMPC1EPNS_6LAMMPSEiPPc+0x95c)[0x10dccf4c]
[r232n18:13467] [15] lmp_kokkos_cuda_mpi(main+0x60)[0x1086af40]
[r228n18:12739] [17] lmp_kokkos_cuda_mpi(_ZN9LAMMPS_NS6LAMMPSC2EiPPcP19ompi_communicator_t+0x3728)[0x11099d08]
[r232n18:13454] [16] lmp_kokkos_cuda_mpi(main+0x60)[0x1086af40]
[r228n18:12743] [17] lmp_kokkos_cuda_mpi(main+0x60)[0x1086af40]
[r232n17:95442] [17] /lib64/power9/libc.so.6(+0x241f8)[0x20000bb441f8]
[r232n17:95442] [18] lmp_kokkos_cuda_mpi(main+0x60)[0x1086af40]
[r232n17:95446] [17] /lib64/power9/libc.so.6(+0x241f8)[0x20000bb441f8]
[r232n17:95446] [18] /lib64/power9/libc.so.6(__libc_start_main+0xb4)[0x20000bb443e4]
lmp_kokkos_cuda_mpi(_ZN9LAMMPS_NS9KokkosLMP10initializeEN6Kokkos13InitArgumentsEPNS_5ErrorE+0x104)[0x10dcae14]
[r232n18:13449] [14] /lib64/power9/libc.so.6(+0x241f8)[0x20000bb441f8]
[r228n18:12743] [r232n17:95446] *** End of error message ***
lmp_kokkos_cuda_mpi(_ZN9LAMMPS_NS9KokkosLMPC1EPNS_6LAMMPSEiPPc+0x95c)[0x10dccf4c]
[r232n18:13477] [15] [18] lmp_kokkos_cuda_mpi(_ZN9LAMMPS_NS9KokkosLMPC1EPNS_6LAMMPSEiPPc+0x95c)[0x10dccf4c]
[r232n18:13455] [15] /lib64/power9/libc.so.6(+0x241f8)[0x20000bb441f8]
[r228n18:12739] [18] /lib64/power9/libc.so.6(__libc_start_main+0xb4)[0x20000bb443e4]
lmp_kokkos_cuda_mpi(main+0x60)[0x1086af40]
[r232n17:95437] [17] /lib64/power9/libc.so.6(+0x241f8)[0x20000bb441f8]
[r232n17:95437] [18] /lib64/power9/libc.so.6(__libc_start_main+0xb4)[0x20000bb443e4]
lmp_kokkos_cuda_mpi(main+0x60)[0x1086af40]
[r232n17:95457] [17] /lib64/power9/libc.so.6(+0x241f8)[0x20000bb441f8]
[r232n17:95457] [18] /lib64/power9/libc.so.6(__libc_start_main+0xb4)[0x20000bb443e4]
[r232n17:95457] *** End of error message ***
lmp_kokkos_cuda_mpi(_ZN9LAMMPS_NS9KokkosLMP10initializeEN6Kokkos13InitArgumentsEPNS_5ErrorE+0x104)[0x10dcae14]
[r232n18:13452] [14] /lib64/power9/libc.so.6(__libc_start_main+0xb4)[0x20000bb443e4]
[r228n18:12743] *** End of error message ***
/lib64/power9/libc.so.6(__libc_start_main+0xb4)[0x20000bb443e4]
[r232n17:95442] *** End of error message ***
lmp_kokkos_cuda_mpi(_ZN9LAMMPS_NS6LAMMPSC2EiPPcP19ompi_communicator_t+0x3728)[0x11099d08]
[r232n18:13468] [16] [r228n18:12739] *** End of error message ***
[r232n17:95437] *** End of error message ***
lmp_kokkos_cuda_mpi(_ZN9LAMMPS_NS6LAMMPSC2EiPPcP19ompi_communicator_t+0x3728)[0x11099d08]
[r232n18:13453] [16] lmp_kokkos_cuda_mpi(_ZN9LAMMPS_NS6LAMMPSC2EiPPcP19ompi_communicator_t+0x3728)[0x11099d08]
[r228n18:12735] [16] lmp_kokkos_cuda_mpi(main+0x60)[0x1086af40]
[r232n17:95454] [17] /lib64/power9/libc.so.6(+0x241f8)[0x20000bb441f8]
lmp_kokkos_cuda_mpi(_ZN9LAMMPS_NS9KokkosLMPC1EPNS_6LAMMPSEiPPc+0x95c)[0x10dccf4c]
[r232n18:13469] [15] lmp_kokkos_cuda_mpi(_ZN9LAMMPS_NS6LAMMPSC2EiPPcP19ompi_communicator_t+0x3728)[0x11099d08]
[r228n18:12754] [16] lmp_kokkos_cuda_mpi(main+0x60)[0x1086af40]
[r232n17:95459] [17] /lib64/power9/libc.so.6(+0x241f8)[0x20000bb441f8]
[r232n17:95459] [18] lmp_kokkos_cuda_mpi(_ZN9LAMMPS_NS9KokkosLMPC1EPNS_6LAMMPSEiPPc+0x95c)[0x10dccf4c]
[r232n18:13476] [15] lmp_kokkos_cuda_mpi(main+0x60)[0x1086af40]
[r228n18:12748] [17] /lib64/power9/libc.so.6(__libc_start_main+0xb4)[0x20000bb443e4]
[r232n17:95459] *** End of error message ***
lmp_kokkos_cuda_mpi(_ZN9LAMMPS_NS9KokkosLMPC1EPNS_6LAMMPSEiPPc+0x95c)[0x10dccf4c]
[r232n18:13449] [15] lmp_kokkos_cuda_mpi(main+0x60)[0x1086af40]
[r228n18:12756] [17] /lib64/power9/libc.so.6(+0x241f8)[0x20000bb441f8]
[r228n18:12756] [18] [r232n17:95454] [18] /lib64/power9/libc.so.6(__libc_start_main+0xb4)[0x20000bb443e4]
[r232n17:95454] *** End of error message ***
lmp_kokkos_cuda_mpi(_ZN9LAMMPS_NS9KokkosLMPC1EPNS_6LAMMPSEiPPc+0x95c)[0x10dccf4c]
[r232n18:13452] [15] /lib64/power9/libc.so.6(+0x241f8)[0x20000bb441f8]
[r228n18:12748] [18] lmp_kokkos_cuda_mpi(_ZN9LAMMPS_NS9KokkosLMPC1EPNS_6LAMMPSEiPPc+0x95c)[0x10dccf4c]
[r232n18:13465] [15] /lib64/power9/libc.so.6(__libc_start_main+0xb4)[0x20000bb443e4]
[r228n18:12748] *** End of error message ***
lmp_kokkos_cuda_mpi(_ZN9LAMMPS_NS6LAMMPSC2EiPPcP19ompi_communicator_t+0x3728)[0x11099d08]
[r232n18:13450] [16] /lib64/power9/libc.so.6(__libc_start_main+0xb4)[0x20000bb443e4]
[r228n18:12756] *** End of error message ***
lmp_kokkos_cuda_mpi(_ZN9LAMMPS_NS9KokkosLMPC1EPNS_6LAMMPSEiPPc+0x95c)[0x10dccf4c]
[r232n18:13472] [15] lmp_kokkos_cuda_mpi(main+0x60)[0x1086af40]
[r228n18:12735] [17] lmp_kokkos_cuda_mpi(main+0x60)[0x1086af40]
[r232n18:13468] [17] /lib64/power9/libc.so.6(+0x241f8)[0x20000bb441f8]
[r232n18:13468] [18] /lib64/power9/libc.so.6(__libc_start_main+0xb4)[0x20000bb443e4]
[r232n18:13468] *** End of error message ***
lmp_kokkos_cuda_mpi(main+0x60)[0x1086af40]
[r228n18:12754] [17] lmp_kokkos_cuda_mpi(_ZN9LAMMPS_NS6LAMMPSC2EiPPcP19ompi_communicator_t+0x3728)[0x11099d08]
[r232n18:13467] [16] /lib64/power9/libc.so.6(+0x241f8)[0x20000bb441f8]
[r228n18:12735] [18] /lib64/power9/libc.so.6(__libc_start_main+0xb4)[0x20000bb443e4]
lmp_kokkos_cuda_mpi(main+0x60)[0x1086af40]
[r232n18:13453] [17] /lib64/power9/libc.so.6(+0x241f8)[0x20000bb441f8]
[r232n18:13453] [18] /lib64/power9/libc.so.6(__libc_start_main+0xb4)[0x20000bb443e4]
[r232n18:13453] *** End of error message ***
/lib64/power9/libc.so.6(+0x241f8)[0x20000bb441f8]
[r228n18:12754] [18] /lib64/power9/libc.so.6(__libc_start_main+0xb4)[0x20000bb443e4]
[r228n18:12754] *** End of error message ***
lmp_kokkos_cuda_mpi(main+0x60)[0x1086af40]
[r232n18:13454] [17] /lib64/power9/libc.so.6(+0x241f8)[0x20000bb441f8]
[r232n18:13454] [18] /lib64/power9/libc.so.6(__libc_start_main+0xb4)[0x20000bb443e4]
[r232n18:13454] *** End of error message ***
[r228n18:12735] *** End of error message ***
lmp_kokkos_cuda_mpi(_ZN9LAMMPS_NS6LAMMPSC2EiPPcP19ompi_communicator_t+0x3728)[0x11099d08]
[r232n18:13455] [16] lmp_kokkos_cuda_mpi(main+0x60)[0x1086af40]
[r232n18:13450] [17] /lib64/power9/libc.so.6(+0x241f8)[0x20000bb441f8]
[r232n18:13450] [18] /lib64/power9/libc.so.6(__libc_start_main+0xb4)[0x20000bb443e4]
[r232n18:13450] *** End of error message ***
lmp_kokkos_cuda_mpi(_ZN9LAMMPS_NS6LAMMPSC2EiPPcP19ompi_communicator_t+0x3728)[0x11099d08]
[r232n18:13477] [16] lmp_kokkos_cuda_mpi(_ZN9LAMMPS_NS6LAMMPSC2EiPPcP19ompi_communicator_t+0x3728)[0x11099d08]
[r232n18:13465] [16] lmp_kokkos_cuda_mpi(_ZN9LAMMPS_NS6LAMMPSC2EiPPcP19ompi_communicator_t+0x3728)[0x11099d08]
[r232n18:13476] [16] lmp_kokkos_cuda_mpi(_ZN9LAMMPS_NS6LAMMPSC2EiPPcP19ompi_communicator_t+0x3728)[0x11099d08]
[r232n18:13472] [16] lmp_kokkos_cuda_mpi(_ZN9LAMMPS_NS6LAMMPSC2EiPPcP19ompi_communicator_t+0x3728)[0x11099d08]
[r232n18:13469] [16] lmp_kokkos_cuda_mpi(_ZN9LAMMPS_NS6LAMMPSC2EiPPcP19ompi_communicator_t+0x3728)[0x11099d08]
[r232n18:13449] [16] lmp_kokkos_cuda_mpi(_ZN9LAMMPS_NS6LAMMPSC2EiPPcP19ompi_communicator_t+0x3728)[0x11099d08]
[r232n18:13452] [16] lmp_kokkos_cuda_mpi(main+0x60)[0x1086af40]
[r232n18:13467] [17] /lib64/power9/libc.so.6(+0x241f8)[0x20000bb441f8]
[r232n18:13467] [18] /lib64/power9/libc.so.6(__libc_start_main+0xb4)[0x20000bb443e4]
[r232n18:13467] *** End of error message ***
lmp_kokkos_cuda_mpi(main+0x60)[0x1086af40]
[r232n18:13477] [17] /lib64/power9/libc.so.6(+0x241f8)[0x20000bb441f8]
[r232n18:13477] [18] lmp_kokkos_cuda_mpi(main+0x60)[0x1086af40]
[r232n18:13455] [17] /lib64/power9/libc.so.6(+0x241f8)[0x20000bb441f8]
[r232n18:13455] [18] /lib64/power9/libc.so.6(__libc_start_main+0xb4)[0x20000bb443e4]
[r232n18:13477] *** End of error message ***
/lib64/power9/libc.so.6(__libc_start_main+0xb4)[0x20000bb443e4]
[r232n18:13455] *** End of error message ***
lmp_kokkos_cuda_mpi(main+0x60)[0x1086af40]
[r232n18:13452] [17] lmp_kokkos_cuda_mpi(main+0x60)[0x1086af40]
[r232n18:13472] [17] /lib64/power9/libc.so.6(+0x241f8)[0x20000bb441f8]
[r232n18:13472] [18] /lib64/power9/libc.so.6(__libc_start_main+0xb4)[0x20000bb443e4]
[r232n18:13472] *** End of error message ***
lmp_kokkos_cuda_mpi(main+0x60)[0x1086af40]
[r232n18:13465] [17] /lib64/power9/libc.so.6(+0x241f8)[0x20000bb441f8]
[r232n18:13465] [18] /lib64/power9/libc.so.6(__libc_start_main+0xb4)[0x20000bb443e4]
[r232n18:13465] *** End of error message ***
lmp_kokkos_cuda_mpi(main+0x60)[0x1086af40]
[r232n18:13449] [17] /lib64/power9/libc.so.6(+0x241f8)[0x20000bb441f8]
[r232n18:13449] [18] /lib64/power9/libc.so.6(__libc_start_main+0xb4)[0x20000bb443e4]
[r232n18:13449] *** End of error message ***
/lib64/power9/libc.so.6(+0x241f8)[0x20000bb441f8]
[r232n18:13452] [18] /lib64/power9/libc.so.6(__libc_start_main+0xb4)[0x20000bb443e4]
[r232n18:13452] *** End of error message ***
lmp_kokkos_cuda_mpi(main+0x60)[0x1086af40]
[r232n18:13476] [17] /lib64/power9/libc.so.6(+0x241f8)[0x20000bb441f8]
[r232n18:13476] [18] lmp_kokkos_cuda_mpi(main+0x60)[0x1086af40]
[r232n18:13469] [17] /lib64/power9/libc.so.6(+0x241f8)[0x20000bb441f8]
[r232n18:13469] [18] /lib64/power9/libc.so.6(__libc_start_main+0xb4)[0x20000bb443e4]
[r232n18:13469] *** End of error message ***
/lib64/power9/libc.so.6(__libc_start_main+0xb4)[0x20000bb443e4]
[r232n18:13476] *** End of error message ***
--------------------------------------------------------------------------
Primary job  terminated normally, but 1 process returned
a non-zero exit code. Per user-direction, the job has been aborted.
--------------------------------------------------------------------------
--------------------------------------------------------------------------
mpirun noticed that process rank 6 with PID 0 on node r228n17 exited on signal 6 (Aborted).
--------------------------------------------------------------------------
3 total processes killed (some possibly by mpirun during cleanup)
