LAMMPS (29 Sep 2021 - Update 1)
KOKKOS mode is enabled (../kokkos.cpp:97)
  will use up to 4 GPU(s) per node
  using 1 OpenMP thread(s) per MPI task
Reading data file ...
  orthogonal box = (0.0000000 0.0000000 0.0000000) to (4143.0751 57.106480 57.106480)
  128 by 1 by 1 MPI processor grid
  reading atoms ...
  360800 atoms
  read_data CPU = 8.056 seconds
800 atoms in group source
800 atoms in group detector
400 atoms in group edge
400 atoms in group edge_buf
120000 atoms in group buffer
WARNING: Using 'neigh_modify every 1 delay 0 check yes' setting during minimization (../min.cpp:188)
Neighbor list info ...
  update every 1 steps, delay 0 steps, check yes
  max neighbors/atom: 2000, page size: 100000
  master list distance cutoff = 7.6
  ghost atom cutoff = 7.6
  binsize = 7.6, bins = 546 8 8
  1 neighbor lists, perpetual/occasional/extra = 1 0 0
  (1) pair eam/alloy/kk, perpetual
      attributes: full, newton off, kokkos_device
      pair build: full/bin/kk/device
      stencil: full/bin/3d
      bin: kk/device
Setting up cg/kk style minimization ...
  Unit style    : metal
  Current step  : 0
WARNING: Fixes cannot yet send exchange data in Kokkos communication, switching to classic exchange/border communication (../comm_kokkos.cpp:581)
Per MPI rank memory allocation (min/avg/max) = 2.254 | 3.806 | 7.377 Mbytes
Time Step Lx Pxx Pxy Pxz Ly Lz Pyy Pzz Pyz 
           0        0    4143.0751    12.766153 -4.6437519e-14 -2.2822878e-14     57.10648     57.10648   -85.456504   -85.456504 -1.1161506e-14 
       0.001        1    4143.0751    4.9624194 -3.6270942e-14 1.8618902e-15     57.10648     57.10648   -95.172201   -95.172201 -4.9116564e-13 
       0.002        2    4143.0751    2.7193318 -5.7166414e-14 -4.1547732e-14     57.10648     57.10648   -97.006352   -97.006352 3.9608354e-13 
       0.003        3    4143.0751    3.2072967 -8.7611451e-14 -1.0720962e-13     57.10648     57.10648   -96.140203   -96.140203 -1.0144295e-13 
       0.004        4    4143.0751    2.6400573 8.9190633e-14 5.4926274e-14     57.10648     57.10648   -96.501525   -96.501525 4.3828824e-13 
       0.005        5    4143.0751    1.8692697 -5.0917269e-15 2.3841394e-14     57.10648     57.10648   -97.038029   -97.038029 1.1039998e-14 
       0.006        6    4143.0751    1.5880349 1.1803055e-13 -1.4169655e-14     57.10648     57.10648   -97.222835   -97.222835 -5.320067e-13 
       0.007        7    4143.0751    1.4304795 -7.1984578e-14 1.2388219e-13     57.10648     57.10648   -97.302236   -97.302236 1.7208186e-13 
       0.008        8    4143.0751    1.3102667 3.7649278e-14 5.3965343e-14     57.10648     57.10648   -97.373091   -97.373091 -5.8805426e-14 
       0.009        9    4143.0751    1.1651506 -1.0857807e-13 1.6615818e-14     57.10648     57.10648   -97.467596   -97.467596 1.850104e-13 
        0.01       10    4143.0751    1.0801049 3.7206765e-14 -1.4088317e-14     57.10648     57.10648   -97.519517   -97.519517 -1.3005388e-14 
       0.011       11    4143.0751    1.0182961 1.0497467e-13 -1.8596511e-13     57.10648     57.10648    -97.55383    -97.55383 3.6434484e-14 
       0.012       12    4143.0751   0.96492776 8.670863e-14 1.0331803e-13     57.10648     57.10648   -97.585187   -97.585187 8.0514156e-14 
       0.013       13    4143.0751   0.90630688 -1.7360176e-14 8.7421359e-14     57.10648     57.10648   -97.622306   -97.622306 1.2667035e-14 
       0.014       14    4143.0751   0.86458184 7.4131923e-14 3.3032477e-14     57.10648     57.10648   -97.647661   -97.647661 -7.6935717e-14 
       0.015       15    4143.0751   0.83242506 1.0660003e-13 -9.3334441e-14     57.10648     57.10648   -97.665622   -97.665622 4.1526809e-14 
       0.016       16    4143.0751   0.80214445 -3.5060386e-14 2.0788839e-13     57.10648     57.10648   -97.683642   -97.683642 4.1700701e-14 
       0.017       17    4143.0751   0.77060995 3.3843907e-14 -1.3822197e-13     57.10648     57.10648   -97.703317   -97.703317 -1.2487243e-14 
       0.018       18    4143.0751   0.74604836 9.0923509e-14 -6.5552726e-14     57.10648     57.10648   -97.718075   -97.718075 1.2946435e-14 
       0.019       19    4143.0751   0.72612731 1.1109854e-13 -2.7390202e-15     57.10648     57.10648   -97.729394   -97.729394 3.5012597e-14 
        0.02       20    4143.0751   0.70656474 -1.811782e-14 1.2425085e-13     57.10648     57.10648   -97.741056   -97.741056 -1.515783e-13 
       0.021       21    4143.0751   0.68688562 -1.0043636e-12 4.6155036e-14     57.10648     57.10648   -97.753242   -97.753242 -4.3356356e-13 
       0.022       22    4143.0751   0.67069155 -8.9816662e-12 -3.7232627e-13     57.10648     57.10648   -97.762917   -97.762917 -3.6754911e-12 
       0.023       23    4143.0751   0.65754382 -5.7189333e-11 -2.3659886e-12     57.10648     57.10648   -97.770449   -97.770449 -2.3871832e-11 
       0.024       24    4143.0751   0.64679155 -1.8363928e-10 -8.0350589e-12     57.10648     57.10648    -97.77684    -97.77684 -7.5989578e-11 
       0.025       25    4143.0751   0.63572527 -5.855702e-11 -2.8153889e-12     57.10648     57.10648   -97.783602   -97.783602 -2.3664505e-11 
       0.026       26    4143.0751   0.62405535 -8.5591869e-12 1.3512106e-13     57.10648     57.10648   -97.790726   -97.790726 -2.6696704e-12 
       0.027       27    4143.0751   0.61326995 4.243072e-13 6.9371863e-12     57.10648     57.10648   -97.797025   -97.797025 1.2528289e-12 
       0.028       28    4143.0751   0.60492011 1.4777612e-11 3.2861978e-11     57.10648     57.10648   -97.801882   -97.801882 4.9808323e-12 
       0.029       29    4143.0751   0.59725865 1.8673102e-11 3.281196e-11     57.10648     57.10648   -97.806481   -97.806481 1.1357384e-12 
        0.03       30    4143.0751     0.588192 8.2306211e-12 1.0773892e-11     57.10648     57.10648   -97.812034   -97.812034 -1.6695629e-12 
       0.031       31    4143.0751   0.57978538 1.741511e-11 1.4136889e-11     57.10648     57.10648   -97.817067   -97.817067 -6.6114661e-13 
       0.032       32    4143.0751   0.57307549 4.9768955e-11 3.1132895e-11     57.10648     57.10648   -97.820962   -97.820962 5.9638643e-12 
       0.033       33    4143.0751    0.5673757 3.8192014e-11 1.9944298e-11     57.10648     57.10648   -97.824308   -97.824308 5.9919074e-12 
       0.034       34    4143.0751    0.5600086 2.0098945e-11 6.3707791e-12     57.10648     57.10648   -97.828768   -97.828768 4.1535274e-12 
       0.035       35    4143.0751   0.55330817 2.9808552e-11 -1.5206004e-13     57.10648     57.10648   -97.832842   -97.832842 9.4228598e-12 
       0.036       36    4143.0751   0.54800786 4.7756509e-11 -6.2677388e-12     57.10648     57.10648    -97.83598    -97.83598 1.6067917e-11 
       0.037       37    4143.0751   0.54283743 2.3487397e-11 2.0524748e-13     57.10648     57.10648    -97.83899    -97.83899 6.0920685e-12 
       0.038       38    4143.0751   0.53718531 2.2857597e-11 6.3151566e-12     57.10648     57.10648   -97.842343   -97.842343 4.8898207e-12 
       0.039       39    4143.0751   0.53180012 3.3799168e-11 1.7319828e-11     57.10648     57.10648   -97.845617   -97.845617 7.206316e-12 
        0.04       40    4143.0751   0.52733156 2.359757e-11 1.4838582e-11     57.10648     57.10648   -97.848317   -97.848317 3.8078036e-12 
       0.041       41    4143.0751    0.5224101 1.3958403e-11 9.1709678e-12     57.10648     57.10648   -97.851216   -97.851216 1.6242431e-12 
       0.042       42    4143.0751   0.51801338 1.4932356e-11 9.3500977e-12     57.10648     57.10648   -97.853787   -97.853787 3.5252875e-12 
       0.043       43    4143.0751   0.51402668 1.4079032e-11 4.3904529e-12     57.10648     57.10648   -97.856172   -97.856172 4.5658751e-12 
       0.044       44    4143.0751   0.50962842 6.8199773e-12 6.9739074e-13     57.10648     57.10648   -97.858842   -97.858842 2.3199205e-12 
       0.045       45    4143.0751   0.50537574 5.5807144e-12 7.2876644e-12     57.10648     57.10648   -97.861393   -97.861393 5.2147694e-12 
       0.046       46    4143.0751   0.50181002 5.5810627e-12 1.431464e-11     57.10648     57.10648   -97.863484   -97.863484 8.3884798e-12 
       0.047       47    4143.0751   0.49841658 2.8818458e-12 4.7124759e-12     57.10648     57.10648   -97.865477   -97.865477 3.5598477e-12 
       0.048       48    4143.0751   0.49441874 -1.8117743e-12 2.6629561e-12     57.10648     57.10648    -97.86788    -97.86788 1.9409877e-12 
       0.049       49    4143.0751   0.49090306 -8.7474059e-12 7.2922042e-12     57.10648     57.10648   -97.870009   -97.870009 2.6759672e-12 
        0.05       50    4143.0751   0.48776162 -5.8406399e-12 3.8105489e-12     57.10648     57.10648   -97.871883   -97.871883 1.6257638e-12 
       0.051       51    4143.0751   0.48442569 -2.1768244e-12 -1.7990217e-12     57.10648     57.10648   -97.873838   -97.873838 7.880302e-13 
       0.052       52    4143.0751   0.48130411 -5.7882589e-12 -4.2077702e-12     57.10648     57.10648   -97.875686   -97.875686 2.038161e-12 
       0.053       53    4143.0751   0.47832457 -7.6435953e-12 -2.5094963e-12     57.10648     57.10648   -97.877482   -97.877482 1.5037877e-12 
       0.054       54    4143.0751   0.47523749 -5.2542684e-12 -1.4958507e-12     57.10648     57.10648   -97.879347   -97.879347 9.7099957e-13 
       0.055       55    4143.0751   0.47225283 -6.3796341e-12 -1.935256e-12     57.10648     57.10648   -97.881115   -97.881115 3.2528769e-12 
       0.056       56    4143.0751    0.4697451 -5.2570249e-12 -1.2110282e-12     57.10648     57.10648   -97.882587   -97.882587 4.2787834e-12 
       0.057       57    4143.0751   0.46704969 -3.5280699e-12 3.5253215e-13     57.10648     57.10648   -97.884189   -97.884189 2.8535362e-12 
       0.058       58    4143.0751   0.46412358 -4.8211677e-12 1.7015157e-12     57.10648     57.10648   -97.885956   -97.885956 4.1165599e-12 
       0.059       59    4143.0751   0.46164961 -6.4343241e-12 2.0375312e-12     57.10648     57.10648   -97.887442   -97.887442 6.4270991e-12 
        0.06       60    4143.0751   0.45917727 -4.2369421e-12 -5.5648747e-14     57.10648     57.10648   -97.888904   -97.888904 4.8773605e-12 
       0.061       61    4143.0751    0.4567094 -6.5098479e-12 -7.4485341e-13     57.10648     57.10648   -97.890355   -97.890355 6.8404107e-12 
       0.062       62    4143.0751   0.45437556 -1.2258907e-11 2.3678708e-13     57.10648     57.10648    -97.89175    -97.89175 1.2682657e-11 
       0.063       63    4143.0751   0.45206018 -8.3087446e-12 2.5626035e-13     57.10648     57.10648   -97.893148   -97.893148 8.190321e-12 
       0.064       64    4143.0751   0.44966316 -8.074424e-12 -4.0053025e-13     57.10648     57.10648   -97.894583   -97.894583 8.7090384e-12 
       0.065       65    4143.0751   0.44750022 -1.1528062e-11 -1.2143096e-12     57.10648     57.10648   -97.895857   -97.895857 1.4626256e-11 
       0.066       66    4143.0751   0.44552063 -7.746389e-12 -8.3012201e-13     57.10648     57.10648   -97.897026   -97.897026 1.067981e-11 
       0.067       67    4143.0751   0.44324571 -6.6876667e-12 -8.8253081e-14     57.10648     57.10648   -97.898389   -97.898389 7.6287819e-12 
       0.068       68    4143.0751   0.44112909 -8.6397728e-12 2.7291264e-13     57.10648     57.10648   -97.899665   -97.899665 9.0479201e-12 
       0.069       69    4143.0751   0.43917752 -6.3154146e-12 1.9458454e-13     57.10648     57.10648   -97.900829   -97.900829 6.5076161e-12 
        0.07       70    4143.0751   0.43713863 -4.6535754e-12 3.4089691e-13     57.10648     57.10648    -97.90203    -97.90203 3.6762317e-12 
       0.071       71    4143.0751   0.43523321 -6.9208656e-12 -8.2339833e-14     57.10648     57.10648   -97.903159   -97.903159 4.4263554e-12 
       0.072       72    4143.0751   0.43333839 -5.2806028e-12 -1.0997499e-12     57.10648     57.10648   -97.904297   -97.904297 2.8336758e-12 
       0.073       73    4143.0751    0.4313653 -3.4768896e-12 -1.7110697e-12     57.10648     57.10648   -97.905485   -97.905485 1.3423074e-12 
       0.074       74    4143.0751   0.42950048 -4.9615108e-12 -2.8895002e-12     57.10648     57.10648   -97.906592   -97.906592 1.6603872e-12 
       0.075       75    4143.0751   0.42781132 -4.8789774e-12 -2.4605681e-12     57.10648     57.10648   -97.907587   -97.907587 1.2008775e-12 
       0.076       76    4143.0751   0.42599128 -4.0636332e-12 -1.9770697e-12     57.10648     57.10648   -97.908669   -97.908669 9.5043926e-13 
       0.077       77    4143.0751   0.42413698 -4.7324595e-12 -1.7351014e-12     57.10648     57.10648   -97.909785   -97.909785 1.5078717e-12 
       0.078       78    4143.0751   0.42250699 -3.8259178e-12 -8.094951e-13     57.10648     57.10648   -97.910763   -97.910763 1.4645009e-12 
       0.079       79    4143.0751   0.42078923 -2.7796159e-12 1.2467561e-13     57.10648     57.10648   -97.911781   -97.911781 1.2557041e-12 
        0.08       80    4143.0751   0.41915264 -3.2970441e-12 3.7996011e-13     57.10648     57.10648   -97.912746   -97.912746 1.8565699e-12 
       0.081       81    4143.0751   0.41758935 -2.900613e-12 -1.8497018e-13     57.10648     57.10648   -97.913679   -97.913679 1.918248e-12 
       0.082       82    4143.0751   0.41588714 -1.7003333e-12 -1.3058598e-13     57.10648     57.10648   -97.914703   -97.914703 7.9606271e-13 
       0.083       83    4143.0751    0.4142468 -2.2578674e-12 5.0340734e-13     57.10648     57.10648   -97.915684   -97.915684 1.2536962e-12 
       0.084       84    4143.0751   0.41275748 -2.29729e-12 5.3296383e-13     57.10648     57.10648   -97.916565   -97.916565 1.6500908e-12 
       0.085       85    4143.0751   0.41126079 -1.4842934e-12 2.4772346e-13     57.10648     57.10648    -97.91745    -97.91745 9.8291867e-13 
       0.086       86    4143.0751   0.40968098 -9.1455334e-13 8.6370195e-13     57.10648     57.10648   -97.918394   -97.918394 1.4451377e-12 
       0.087       87    4143.0751   0.40821366 -5.7765986e-13 1.2709838e-12     57.10648     57.10648   -97.919277   -97.919277 1.5008436e-12 
       0.088       88    4143.0751   0.40672238 -6.1166942e-13 1.155813e-12     57.10648     57.10648   -97.920167   -97.920167 1.2659797e-12 
       0.089       89    4143.0751   0.40525009 -1.273158e-12 1.2598903e-12     57.10648     57.10648   -97.921037   -97.921037 1.6438967e-12 
        0.09       90    4143.0751   0.40390549 -1.2201884e-12 9.2377156e-13     57.10648     57.10648   -97.921834   -97.921834 1.9370797e-12 
       0.091       91    4143.0751    0.4024359 -8.4407111e-13 -3.2827812e-13     57.10648     57.10648   -97.922714   -97.922714 1.2269564e-12 
       0.092       92    4143.0751   0.40098612 -1.343228e-12 -5.5385298e-13     57.10648     57.10648   -97.923585   -97.923585 8.6929204e-13 
       0.093       93    4143.0751   0.39965094 -2.249556e-12 -4.1691537e-13     57.10648     57.10648   -97.924379   -97.924379 6.4859064e-13 
       0.094       94    4143.0751   0.39828949 -1.6037307e-12 -1.8804654e-13     57.10648     57.10648   -97.925184   -97.925184 -1.6693548e-14 
       0.095       95    4143.0751   0.39692426 -2.3705342e-12 -6.4272774e-13     57.10648     57.10648   -97.925995   -97.925995 -1.6989069e-13 
       0.096       96    4143.0751   0.39559989 -2.5448631e-12 -4.2569267e-13     57.10648     57.10648   -97.926789   -97.926789 -1.9531359e-13 
       0.097       97    4143.0751   0.39426301 -1.8144037e-12 -3.0733275e-13     57.10648     57.10648   -97.927591   -97.927591 -7.0309741e-14 
       0.098       98    4143.0751   0.39292645 -1.5794505e-12 -5.3491127e-13     57.10648     57.10648   -97.928385   -97.928385 1.6798677e-13 
       0.099       99    4143.0751   0.39170768 -1.6520818e-12 -8.3826649e-13     57.10648     57.10648   -97.929105   -97.929105 3.1621349e-13 
         0.1      100    4143.0751   0.39042551 -1.3344189e-12 -2.6055986e-13     57.10648     57.10648   -97.929869   -97.929869 2.3535301e-13 
       0.101      101    4143.0751   0.38910016 -1.3892001e-12 -6.1986659e-14     57.10648     57.10648   -97.930664   -97.930664 8.897642e-13 
       0.102      102    4143.0751   0.38787958 -1.6403268e-12 -1.3365684e-13     57.10648     57.10648   -97.931395   -97.931395 6.7113003e-13 
       0.103      103    4143.0751   0.38661569 -1.2610648e-12 -5.5418726e-13     57.10648     57.10648   -97.932144   -97.932144 4.962248e-13 
       0.104      104    4143.0751   0.38539439 -1.0914934e-12 -5.6412143e-13     57.10648     57.10648   -97.932867   -97.932867 4.4986502e-13 
       0.105      105    4143.0751   0.38421548 -6.1351473e-13 -8.6510823e-13     57.10648     57.10648    -97.93357    -97.93357 4.1122522e-13 
       0.106      106    4143.0751   0.38296649 -4.5475373e-13 -1.0868725e-12     57.10648     57.10648    -97.93432    -97.93432 1.9771114e-13 
       0.107      107    4143.0751   0.38174011 -5.7543462e-13 -1.5245582e-12     57.10648     57.10648   -97.935052   -97.935052 1.9566386e-13 
       0.108      108    4143.0751   0.38059858 -5.4410533e-13 -1.3333696e-12     57.10648     57.10648   -97.935729   -97.935729 3.4464161e-14 
       0.109      109    4143.0751   0.37943831 -2.4786728e-13 -1.1932787e-12     57.10648     57.10648   -97.936416   -97.936416 2.9970624e-13 
        0.11      110    4143.0751   0.37822249 4.6947849e-13 -1.01528e-12     57.10648     57.10648   -97.937143   -97.937143 5.6098229e-13 
       0.111      111    4143.0751   0.37708427 9.0369553e-13 -7.1859934e-13     57.10648     57.10648   -97.937826   -97.937826 6.1167862e-13 
       0.112      112    4143.0751   0.37592253 8.7744822e-13 -3.023533e-13     57.10648     57.10648   -97.938518   -97.938518 5.4579733e-13 
       0.113      113    4143.0751   0.37477423 8.6547489e-13 -3.9498758e-13     57.10648     57.10648   -97.939198   -97.939198 5.9431013e-13 
       0.114      114    4143.0751   0.37369823 8.4497403e-13 -4.6038917e-13     57.10648     57.10648   -97.939837   -97.939837 5.5640118e-13 
       0.115      115    4143.0751   0.37254057 9.039331e-13 -3.3755605e-13     57.10648     57.10648    -97.94053    -97.94053 3.1806578e-13 
       0.116      116    4143.0751   0.37140802 6.9360696e-13 -3.7262902e-14     57.10648     57.10648   -97.941209   -97.941209 2.7233342e-13 
       0.117      117    4143.0751   0.37033406 5.1468927e-13 6.5380597e-14     57.10648     57.10648   -97.941848   -97.941848 4.0465831e-13 
       0.118      118    4143.0751   0.36923168 5.1828361e-13 -1.1339737e-13     57.10648     57.10648     -97.9425     -97.9425 2.9594584e-13 
       0.119      119    4143.0751   0.36813102 3.2611503e-13 -2.8329907e-13     57.10648     57.10648   -97.943155   -97.943155 6.4353978e-13 
        0.12      120    4143.0751   0.36704631 -1.282693e-13 -2.8008356e-13     57.10648     57.10648   -97.943805   -97.943805 5.9263449e-13 
       0.121      121    4143.0751    0.3659424 -9.5754282e-14 -2.2254334e-13     57.10648     57.10648   -97.944466   -97.944466 5.8273572e-13 
       0.122      122    4143.0751   0.36485421 -4.6748209e-13 5.9844166e-14     57.10648     57.10648   -97.945112   -97.945112 5.0345396e-13 
       0.123      123    4143.0751   0.36383904 -2.3637248e-13 -8.2879657e-14     57.10648     57.10648   -97.945713   -97.945713 7.2288556e-13 
       0.124      124    4143.0751    0.3627593 -5.1783156e-14 -6.269699e-13     57.10648     57.10648   -97.946357   -97.946357 6.1213287e-13 
       0.125      125    4143.0751   0.36167276 -1.2249774e-13 -6.4763432e-13     57.10648     57.10648   -97.947008   -97.947008 5.6652364e-13 
       0.126      126    4143.0751   0.36065584 -3.1283078e-13 -3.020886e-13     57.10648     57.10648   -97.947616   -97.947616 5.0425129e-13 
       0.127      127    4143.0751   0.35960011 -2.6453791e-13 -2.3685623e-13     57.10648     57.10648   -97.948242   -97.948242 3.2788177e-13 
       0.128      128    4143.0751   0.35857537 -2.2169626e-13 -4.2105631e-13     57.10648     57.10648    -97.94885    -97.94885 3.4182925e-13 
       0.129      129    4143.0751   0.35754958 5.0521231e-14 -6.1002544e-13     57.10648     57.10648   -97.949462   -97.949462 2.8841397e-13 
        0.13      130    4143.0751   0.35648775 -3.6227856e-14 -7.5180878e-13     57.10648     57.10648   -97.950098   -97.950098 3.572597e-13 
       0.131      131    4143.0751   0.35546561 -6.8353809e-14 -9.6227212e-13     57.10648     57.10648   -97.950708   -97.950708 2.3625988e-13 
       0.132      132    4143.0751   0.35446969 2.8802275e-15 -8.9232088e-13     57.10648     57.10648   -97.951299   -97.951299 4.4285859e-13 
       0.133      133    4143.0751   0.35345052 -1.5114851e-14 -7.0214063e-13     57.10648     57.10648   -97.951904   -97.951904 3.4781102e-13 
       0.134      134    4143.0751   0.35242641 1.227867e-13 -7.7357264e-13     57.10648     57.10648   -97.952516   -97.952516 6.2830169e-13 
       0.135      135    4143.0751   0.35143328 9.7340843e-14 -4.3710177e-13     57.10648     57.10648   -97.953111   -97.953111 7.2340518e-13 
       0.136      136    4143.0751   0.35041119 -1.1447022e-13 -4.8388183e-13     57.10648     57.10648   -97.953719   -97.953719 7.4335523e-13 
       0.137      137    4143.0751   0.34943229 -3.6250941e-14 -6.690985e-13     57.10648     57.10648     -97.9543     -97.9543 9.4263408e-13 
       0.138      138    4143.0751   0.34846684 7.7065442e-14 -8.2618505e-13     57.10648     57.10648   -97.954874   -97.954874 5.501897e-13 
       0.139      139    4143.0751   0.34743556 -7.2265579e-14 -1.1105512e-12     57.10648     57.10648    -97.95549    -97.95549 7.6375233e-13 
        0.14      140    4143.0751   0.34645803 -3.4900293e-13 -9.7884461e-13     57.10648     57.10648   -97.956075   -97.956075 5.6293035e-13 
       0.141      141    4143.0751   0.34548382 -2.1372554e-14 -3.4312204e-13     57.10648     57.10648   -97.956655   -97.956655 5.4870548e-13 
       0.142      142    4143.0751   0.34449163 9.0780241e-14 -1.5533784e-13     57.10648     57.10648   -97.957243   -97.957243 5.571685e-13 
       0.143      143    4143.0751   0.34353135 -6.2759303e-14 -2.6461559e-13     57.10648     57.10648   -97.957815   -97.957815 6.6739752e-13 
       0.144      144    4143.0751   0.34255259 -3.9675442e-13 -7.4527993e-14     57.10648     57.10648   -97.958401   -97.958401 4.9729415e-13 
       0.145      145    4143.0751   0.34155877 -6.9233313e-13 -4.9556476e-15     57.10648     57.10648   -97.958995   -97.958995 5.0317242e-13 
       0.146      146    4143.0751    0.3406041 -9.5404023e-13 -9.0337372e-15     57.10648     57.10648   -97.959562   -97.959562 5.4011482e-13 
       0.147      147    4143.0751   0.33966464 -2.8289756e-13 -2.1128388e-13     57.10648     57.10648   -97.960119   -97.960119 4.6577225e-13 
       0.148      148    4143.0751   0.33867945 -3.1417385e-13 -3.4284129e-13     57.10648     57.10648   -97.960707   -97.960707 1.6555028e-13 
       0.149      149    4143.0751   0.33772292 -1.0082098e-12 -7.3173888e-13     57.10648     57.10648   -97.961279   -97.961279 1.6217605e-13 
        0.15      150    4143.0751   0.33676922 -1.1257973e-12 -7.7393423e-13     57.10648     57.10648   -97.961849   -97.961849 2.0847725e-13 
       0.151      151    4143.0751   0.33579325 -8.9005067e-13 -3.3661095e-13     57.10648     57.10648   -97.962428   -97.962428 1.6635598e-13 
       0.152      152    4143.0751   0.33487023 -1.0654422e-12 1.9634593e-13     57.10648     57.10648   -97.962976   -97.962976 3.583533e-13 
       0.153      153    4143.0751   0.33390849 -9.2035577e-13 4.6460496e-13     57.10648     57.10648    -97.96355    -97.96355 1.5292754e-13 
       0.154      154    4143.0751   0.33293255 -9.2821795e-13 1.6658388e-13     57.10648     57.10648   -97.964134   -97.964134 2.2031804e-13 
       0.155      155    4143.0751   0.33200836 -1.2279992e-12 1.3035504e-13     57.10648     57.10648   -97.964685   -97.964685 3.162272e-13 
       0.156      156    4143.0751   0.33106751 -1.0258568e-12 2.7183175e-14     57.10648     57.10648   -97.965243   -97.965243 3.1232803e-13 
       0.157      157    4143.0751   0.33011718 -7.7761453e-13 -6.4703496e-13     57.10648     57.10648   -97.965808   -97.965808 3.7479558e-13 
       0.158      158    4143.0751   0.32918103 -8.1504415e-13 -8.0684938e-13     57.10648     57.10648   -97.966368   -97.966368 4.6054809e-13 
       0.159      159    4143.0751   0.32823817 -7.9457597e-13 -6.7113044e-13     57.10648     57.10648   -97.966932   -97.966932 2.799244e-13 
        0.16      160    4143.0751   0.32728738 -1.2549072e-12 -5.0387736e-13     57.10648     57.10648   -97.967498   -97.967498 4.5263859e-13 
       0.161      161    4143.0751    0.3263789 -7.3889185e-13 -1.3917506e-13     57.10648     57.10648   -97.968037   -97.968037 4.5899832e-13 
       0.162      162    4143.0751   0.32544656 -3.4822234e-13 3.9991929e-14     57.10648     57.10648   -97.968592   -97.968592 2.4580153e-13 
       0.163      163    4143.0751    0.3244874 -9.8310554e-13 -3.5535592e-13     57.10648     57.10648   -97.969165   -97.969165 2.0445296e-13 
       0.164      164    4143.0751   0.32357473 -1.2465108e-12 -5.568758e-13     57.10648     57.10648   -97.969711   -97.969711 3.5509504e-13 
       0.165      165    4143.0751   0.32263587 -8.6360004e-13 -4.3517172e-13     57.10648     57.10648   -97.970269   -97.970269 3.2823931e-13 
       0.166      166    4143.0751   0.32171089 -9.94744e-13 -5.0397487e-13     57.10648     57.10648   -97.970818   -97.970818 9.2325089e-14 
       0.167      167    4143.0751   0.32080027 -6.0019077e-13 -6.0311731e-13     57.10648     57.10648   -97.971361   -97.971361 2.7928636e-13 
       0.168      168    4143.0751   0.31984865 -9.505106e-13 -9.6735439e-14     57.10648     57.10648    -97.97193    -97.97193 2.7377209e-13 
       0.169      169    4143.0751   0.31892045 -1.5667238e-12 1.7592161e-14     57.10648     57.10648   -97.972484   -97.972484 4.2355933e-13 
        0.17      170    4143.0751   0.31801075 -1.3389674e-12 -2.4831311e-14     57.10648     57.10648   -97.973025   -97.973025 2.7272527e-13 
       0.171      171    4143.0751   0.31708542 -1.0513714e-12 1.9387989e-13     57.10648     57.10648   -97.973574   -97.973574 3.1439223e-13 
       0.172      172    4143.0751   0.31615632 -1.5113849e-12 8.5276646e-14     57.10648     57.10648   -97.974128   -97.974128 4.8616578e-13 
       0.173      173    4143.0751   0.31524316 -1.2113999e-12 -5.2247414e-13     57.10648     57.10648   -97.974674   -97.974674 3.3959508e-13 
       0.174      174    4143.0751   0.31430962 -1.1190657e-12 -4.5543428e-13     57.10648     57.10648   -97.975231   -97.975231 4.6519639e-13 
       0.175      175    4143.0751   0.31339084 -1.320846e-12 -2.0504264e-13     57.10648     57.10648   -97.975777   -97.975777 6.4325932e-13 
       0.176      176    4143.0751   0.31249654 -1.0619315e-12 -2.4538009e-13     57.10648     57.10648   -97.976308   -97.976308 4.1937012e-13 
       0.177      177    4143.0751   0.31155649 -4.2478239e-13 -4.9232394e-13     57.10648     57.10648    -97.97687    -97.97687 5.9298627e-13 
       0.178      178    4143.0751   0.31064124 -4.6673821e-13 -1.8768148e-13     57.10648     57.10648   -97.977417   -97.977417 5.2280959e-13 
       0.179      179    4143.0751   0.30973359 -3.8863098e-13 -3.8148526e-14     57.10648     57.10648   -97.977958   -97.977958 6.0097821e-13 
        0.18      180    4143.0751   0.30880625 -3.0679288e-13 -3.9301133e-13     57.10648     57.10648   -97.978508   -97.978508 5.4682569e-13 
       0.181      181    4143.0751   0.30790896 -2.7458764e-13 -4.1775073e-13     57.10648     57.10648   -97.979042   -97.979042 4.7940858e-13 
       0.182      182    4143.0751   0.30698812 -1.6063692e-13 -3.2641051e-13     57.10648     57.10648   -97.979592   -97.979592 2.2676602e-13 
       0.183      183    4143.0751   0.30605548 -3.8772592e-13 4.0871977e-13     57.10648     57.10648    -97.98015    -97.98015 4.1039648e-13 
       0.184      184    4143.0751   0.30515006 -2.9568706e-13 -8.7970966e-14     57.10648     57.10648   -97.980689   -97.980689 3.3914562e-13 
       0.185      185    4143.0751   0.30424612 -8.2409518e-14 -2.9650988e-13     57.10648     57.10648   -97.981225   -97.981225 2.2751677e-13 
       0.186      186    4143.0751   0.30332281 -2.0322329e-13 -3.6811022e-13     57.10648     57.10648   -97.981775   -97.981775 2.9632548e-13 
       0.187      187    4143.0751    0.3024111 -2.1619234e-13 -4.0971911e-13     57.10648     57.10648    -97.98232    -97.98232 2.7457314e-13 
       0.188      188    4143.0751   0.30150022 -3.0090336e-13 -3.5574794e-13     57.10648     57.10648   -97.982864   -97.982864 3.1172614e-13 
       0.189      189    4143.0751    0.3005749 -3.4574049e-13 -7.0771137e-13     57.10648     57.10648   -97.983414   -97.983414 3.0787454e-13 
        0.19      190    4143.0751   0.29968648 -6.2602936e-13 -1.0998444e-12     57.10648     57.10648   -97.983942   -97.983942 4.7734262e-13 
       0.191      191    4143.0751   0.29877086 -2.1585819e-13 -9.0897202e-13     57.10648     57.10648   -97.984488   -97.984488 2.7353713e-13 
       0.192      192    4143.0751   0.29784077 -3.0859543e-13 -8.6590669e-13     57.10648     57.10648   -97.985044   -97.985044 3.3739369e-13 
       0.193      193    4143.0751   0.29694609 -4.0113608e-13 -6.7987741e-13     57.10648     57.10648   -97.985578   -97.985578 2.3618142e-13 
       0.194      194    4143.0751   0.29602383 -4.1496274e-13 -4.5472101e-13     57.10648     57.10648   -97.986126   -97.986126 2.7462806e-13 
       0.195      195    4143.0751   0.29511189 -7.0198781e-13 -3.8165532e-13     57.10648     57.10648   -97.986668   -97.986668  1.82051e-13 
       0.196      196    4143.0751   0.29420933 -5.5678205e-13 -4.8079667e-13     57.10648     57.10648   -97.987206   -97.987206 1.6129147e-13 
       0.197      197    4143.0751   0.29328367 -6.2862044e-13 -5.5980584e-13     57.10648     57.10648   -97.987759   -97.987759 1.2321216e-13 
       0.198      198    4143.0751    0.2923671 -7.8133079e-13 -3.2626003e-13     57.10648     57.10648   -97.988306   -97.988306 1.7420854e-13 
       0.199      199    4143.0751   0.29146655 -5.5515237e-13 -7.3699115e-14     57.10648     57.10648   -97.988841   -97.988841 1.0352786e-13 
         0.2      200    4143.0751   0.29055103 -5.7243277e-13 -4.707811e-13     57.10648     57.10648   -97.989385   -97.989385 6.8591989e-14 
       0.201      201    4143.0751   0.28962764 -5.8006357e-13 -8.7056166e-13     57.10648     57.10648   -97.989937   -97.989937 1.1503714e-13 
       0.202      202    4143.0751   0.28872742 -4.9738724e-13 -6.9010845e-13     57.10648     57.10648   -97.990475   -97.990475 7.6086537e-15 
       0.203      203    4143.0751   0.28780372 -3.5687358e-13 -7.0557809e-14     57.10648     57.10648   -97.991025   -97.991025 6.8678063e-14 
       0.204      204    4143.0751   0.28689741 -5.9091053e-13 -3.9469167e-13     57.10648     57.10648   -97.991563   -97.991563 -2.5276259e-14 
       0.205      205    4143.0751   0.28600437 -4.1912409e-13 -3.4876777e-13     57.10648     57.10648   -97.992095   -97.992095 -1.535881e-15 
       0.206      206    4143.0751   0.28506972 -2.2504892e-13 -2.3139654e-16     57.10648     57.10648   -97.992653   -97.992653 -1.9935049e-14 
       0.207      207    4143.0751   0.28416231 -8.7555798e-15 2.4537728e-13     57.10648     57.10648   -97.993195   -97.993195 4.5577453e-14 
       0.208      208    4143.0751   0.28325604 5.6103493e-13 1.4407988e-14     57.10648     57.10648   -97.993734   -97.993734 1.8091428e-13 
       0.209      209    4143.0751   0.28233604 8.7640668e-13 -2.2325813e-13     57.10648     57.10648   -97.994281   -97.994281 2.8184332e-13 
        0.21      210    4143.0751    0.2814329 5.4597163e-13 -3.0492227e-13     57.10648     57.10648   -97.994819   -97.994819 2.2493236e-13 
       0.211      211    4143.0751    0.2805143 3.0072114e-13 -8.4045595e-14     57.10648     57.10648   -97.995368   -97.995368 2.6631546e-13 
       0.212      212    4143.0751   0.27958652 4.1345639e-13 4.425438e-13     57.10648     57.10648   -97.995921   -97.995921 1.2940085e-13 
       0.213      213    4143.0751   0.27867882 5.2064467e-13 8.6877839e-14     57.10648     57.10648   -97.996461   -97.996461 1.6314915e-13 
       0.214      214    4143.0751   0.27777588 3.4895175e-13 -2.5573465e-13     57.10648     57.10648   -97.996998   -97.996998 -9.6694771e-14 
       0.215      215    4143.0751   0.27684631 2.3329521e-13 5.3636657e-14     57.10648     57.10648   -97.997552   -97.997552 1.9755186e-13 
       0.216      216    4143.0751   0.27593423 9.0469605e-14 4.2860857e-13     57.10648     57.10648   -97.998097   -97.998097 8.4903218e-14 
       0.217      217    4143.0751   0.27502074 -4.2321254e-14 2.3372508e-13     57.10648     57.10648   -97.998642   -97.998642 -1.0598691e-13 
       0.218      218    4143.0751   0.27409424 1.2198334e-13 1.6160536e-13     57.10648     57.10648   -97.999193   -97.999193 -1.3881414e-13 
       0.219      219    4143.0751   0.27319956 -1.4792475e-13 4.2676823e-13     57.10648     57.10648   -97.999725   -97.999725 -1.5187653e-13 
        0.22      220    4143.0751   0.27227463 -4.4748421e-13 1.8477842e-13     57.10648     57.10648   -98.000276   -98.000276 -1.2352298e-13 
       0.221      221    4143.0751   0.27134403 -6.9855713e-13 -5.8219823e-13     57.10648     57.10648   -98.000833   -98.000833 4.2485362e-14 
       0.222      222    4143.0751   0.27043813 -6.2556855e-14 -7.6562069e-13     57.10648     57.10648   -98.001373   -98.001373 -8.925247e-14 
       0.223      223    4143.0751   0.26951619 4.8591205e-13 -3.3684724e-13     57.10648     57.10648    -98.00192    -98.00192 -1.0828629e-13 
       0.224      224    4143.0751   0.26860064 -1.6606115e-13 -2.5078913e-15     57.10648     57.10648   -98.002465   -98.002465 -2.0249968e-14 
       0.225      225    4143.0751   0.26768453 -4.2718548e-13 -1.2292809e-13     57.10648     57.10648   -98.003012   -98.003012 -1.3076237e-14 
       0.226      226    4143.0751   0.26675535 3.3361131e-13 7.463381e-14     57.10648     57.10648   -98.003567   -98.003567 1.7968556e-13 
       0.227      227    4143.0751   0.26583227 3.2694139e-13 4.2353606e-13     57.10648     57.10648   -98.004117   -98.004117 1.8819965e-14 
       0.228      228    4143.0751   0.26492746 -5.2791877e-13 2.0094789e-13     57.10648     57.10648   -98.004655   -98.004655 7.194214e-14 
       0.229      229    4143.0751   0.26400464 -4.8184247e-13 -3.0854971e-13     57.10648     57.10648   -98.005204   -98.005204 1.0572092e-13 
        0.23      230    4143.0751   0.26307629 -3.9206107e-13 3.0362122e-13     57.10648     57.10648   -98.005758   -98.005758 1.2221424e-13 
       0.231      231    4143.0751   0.26216299 -1.6710087e-13 5.8323273e-13     57.10648     57.10648   -98.006303   -98.006303 7.5641723e-14 
       0.232      232    4143.0751    0.2612279 -3.7014868e-13 1.5892029e-13     57.10648     57.10648    -98.00686    -98.00686 -5.0716475e-15 
       0.233      233    4143.0751   0.26031755 -3.5857239e-13 -5.1120407e-13     57.10648     57.10648   -98.007401   -98.007401 -5.3230747e-14 
       0.234      234    4143.0751   0.25940383 -1.1866105e-13 -5.2706519e-13     57.10648     57.10648   -98.007945   -98.007945 -9.3171018e-14 
       0.235      235    4143.0751   0.25846014 -2.8107608e-13 -1.6437193e-13     57.10648     57.10648   -98.008509   -98.008509 3.846965e-14 
       0.236      236    4143.0751   0.25754446 -5.6898685e-13 -2.4032898e-13     57.10648     57.10648   -98.009055   -98.009055 -1.0503027e-13 
       0.237      237    4143.0751   0.25662222 -4.5369699e-13 -1.7611973e-13     57.10648     57.10648   -98.009604   -98.009604 -4.9585493e-14 
       0.238      238    4143.0751   0.25569317 -1.3934231e-13 -2.9449043e-13     57.10648     57.10648   -98.010157   -98.010157 -1.3974708e-13 
       0.239      239    4143.0751   0.25477359 -2.2662413e-13 -3.0640443e-13     57.10648     57.10648   -98.010705   -98.010705 -1.0085478e-13 
        0.24      240    4143.0751   0.25384362 -6.5086992e-13 -2.3532944e-13     57.10648     57.10648    -98.01126    -98.01126 -4.4315649e-14 
       0.241      241    4143.0751   0.25290718 -7.5437061e-13 -1.0392757e-13     57.10648     57.10648   -98.011819   -98.011819 -1.2570346e-13 
       0.242      242    4143.0751   0.25198957 4.1748996e-14 -8.2081241e-14     57.10648     57.10648   -98.012364   -98.012364  7.13589e-14 
       0.243      243    4143.0751   0.25106987 1.7772526e-13 -2.8451253e-13     57.10648     57.10648   -98.012911   -98.012911 -4.5068688e-14 
       0.244      244    4143.0751   0.25012563 -2.4683271e-13 -4.9936103e-13     57.10648     57.10648   -98.013475   -98.013475 5.3880411e-14 
       0.245      245    4143.0751   0.24920253 -5.0819158e-13 -1.3797001e-13     57.10648     57.10648   -98.014026   -98.014026 6.0342912e-15 
       0.246      246    4143.0751   0.24826946 -1.8420038e-13 -6.5225861e-14     57.10648     57.10648   -98.014582   -98.014582 6.0588605e-14 
       0.247      247    4143.0751   0.24733545 -5.9743917e-13 -2.0471936e-13     57.10648     57.10648   -98.015137   -98.015137 9.5451487e-14 
       0.248      248    4143.0751   0.24642224 -4.6018786e-13 -7.3106653e-13     57.10648     57.10648   -98.015681   -98.015681 8.0562142e-14 
       0.249      249    4143.0751   0.24547714 1.8226351e-13 -7.9892909e-13     57.10648     57.10648   -98.016245   -98.016245 1.0492873e-13 
        0.25      250    4143.0751    0.2445425 2.1207155e-13 -8.8339616e-13     57.10648     57.10648   -98.016803   -98.016803 -3.8026962e-14 
       0.251      251    4143.0751   0.24361969 5.6974085e-14 -1.0809797e-12     57.10648     57.10648   -98.017352   -98.017352 -2.3070127e-14 
       0.252      252    4143.0751   0.24268171 8.0513904e-14 -8.9950654e-13     57.10648     57.10648    -98.01791    -98.01791 -6.3354615e-14 
       0.253      253    4143.0751   0.24175149 -3.2478538e-13 -5.8748003e-13     57.10648     57.10648   -98.018464   -98.018464 8.5367424e-14 
       0.254      254    4143.0751   0.24082056 -5.8777447e-13 -2.9200535e-13     57.10648     57.10648    -98.01902    -98.01902 -1.5961627e-14 
       0.255      255    4143.0751   0.23987875 -1.0436713e-13 -7.8972329e-13     57.10648     57.10648   -98.019582   -98.019582 -4.4999459e-14 
       0.256      256    4143.0751   0.23894638 -1.551678e-13 -4.1160995e-13     57.10648     57.10648   -98.020137   -98.020137 -8.0654931e-14 
       0.257      257    4143.0751   0.23802656 -5.0188497e-13 -7.772834e-15     57.10648     57.10648   -98.020684   -98.020684 1.8320176e-13 
       0.258      258    4143.0751   0.23707948 -1.2221128e-13 -1.0518164e-13     57.10648     57.10648   -98.021248   -98.021248 1.6779627e-13 
       0.259      259    4143.0751   0.23613877 7.6850305e-14 -6.9864743e-13     57.10648     57.10648    -98.02181    -98.02181 -8.8693684e-14 
        0.26      260    4143.0751   0.23520761 -1.0612891e-13 -4.4612326e-13     57.10648     57.10648   -98.022365   -98.022365 5.889061e-14 
       0.261      261    4143.0751    0.2342579 -2.224444e-13 -4.7342039e-13     57.10648     57.10648    -98.02293    -98.02293 -3.8446109e-14 
       0.262      262    4143.0751   0.23333385 -2.4086276e-13 -2.9798835e-13     57.10648     57.10648    -98.02348    -98.02348 7.1718642e-14 
       0.263      263    4143.0751   0.23239451 -1.4658084e-13 -4.0795234e-13     57.10648     57.10648    -98.02404    -98.02404 7.8703015e-14 
       0.264      264    4143.0751   0.23144188 -3.1121226e-13 -4.5802461e-13     57.10648     57.10648   -98.024609   -98.024609 9.5081491e-14 
       0.265      265    4143.0751   0.23051248 -4.90743e-13 -3.5762567e-13     57.10648     57.10648   -98.025163   -98.025163 4.6762368e-14 
       0.266      266    4143.0751   0.22957039 -6.150269e-13 -1.0383427e-13     57.10648     57.10648   -98.025723   -98.025723 2.2127812e-13 
       0.267      267    4143.0751   0.22862652 -6.0889731e-13 3.4555175e-14     57.10648     57.10648   -98.026285   -98.026285 3.8441354e-14 
       0.268      268    4143.0751   0.22768778 -4.3078131e-13 -2.4557525e-13     57.10648     57.10648   -98.026845   -98.026845 2.9600923e-13 
       0.269      269    4143.0751   0.22674141 -5.1177463e-13 -3.2275681e-13     57.10648     57.10648    -98.02741    -98.02741 9.8026092e-14 
        0.27      270    4143.0751   0.22579331 -9.3384328e-13 -3.7979421e-14     57.10648     57.10648   -98.027975   -98.027975 1.2520826e-13 
       0.271      271    4143.0751   0.22486263 -1.0304071e-12 -3.0194251e-13     57.10648     57.10648   -98.028528   -98.028528 7.0630109e-14 
       0.272      272    4143.0751   0.22391895 -3.3539819e-13 -5.476599e-13     57.10648     57.10648    -98.02909    -98.02909 -7.563323e-14 
       0.273      273    4143.0751   0.22296402 -4.4604935e-13 -9.2765679e-13     57.10648     57.10648    -98.02966    -98.02966 -2.0350282e-13 
       0.274      274    4143.0751   0.22203045 -2.8194911e-13 -5.4368407e-13     57.10648     57.10648   -98.030217   -98.030217 -1.3181985e-13 
       0.275      275    4143.0751   0.22107582 1.7327481e-13 -5.4482556e-13     57.10648     57.10648   -98.030785   -98.030785 -2.5144636e-13 
       0.276      276    4143.0751     0.220132 1.7202298e-13 -5.2718928e-13     57.10648     57.10648   -98.031347   -98.031347 -3.3638253e-14 
       0.277      277    4143.0751   0.21919702 -1.5674727e-13 -3.27325e-13     57.10648     57.10648   -98.031903   -98.031903 -3.339292e-14 
       0.278      278    4143.0751   0.21823387 -1.5025935e-13 -2.1507499e-13     57.10648     57.10648   -98.032478   -98.032478 -1.0572073e-13 
       0.279      279    4143.0751   0.21728824 -2.643721e-14 -1.9077809e-13     57.10648     57.10648   -98.033043   -98.033043 -8.0835373e-15 
        0.28      280    4143.0751   0.21634391 -9.9651938e-14 1.1777698e-13     57.10648     57.10648   -98.033605   -98.033605 1.9750116e-14 
       0.281      281    4143.0751   0.21539192 -3.4729631e-13 1.3780754e-14     57.10648     57.10648   -98.034171   -98.034171 2.2420624e-13 
       0.282      282    4143.0751   0.21444748 7.0459847e-14 -6.2281738e-13     57.10648     57.10648   -98.034734   -98.034734 1.5669077e-13 
       0.283      283    4143.0751   0.21349695 2.6741449e-13 -6.7350937e-13     57.10648     57.10648   -98.035301   -98.035301 -6.2151727e-14 
       0.284      284    4143.0751   0.21253687 1.5143904e-13 -5.7259817e-13     57.10648     57.10648   -98.035874   -98.035874 1.4284543e-13 
       0.285      285    4143.0751   0.21159031 -4.199497e-13 -7.8055672e-13     57.10648     57.10648   -98.036437   -98.036437 -2.9106633e-14 
       0.286      286    4143.0751   0.21064826 -2.9791169e-13 -1.2010073e-12     57.10648     57.10648   -98.036997   -98.036997 1.2229276e-13 
       0.287      287    4143.0751   0.20968225 -1.2942059e-13 -1.211716e-12     57.10648     57.10648   -98.037573   -98.037573 1.5244736e-13 
       0.288      288    4143.0751   0.20873326 -4.5175823e-13 -1.0969562e-12     57.10648     57.10648    -98.03814    -98.03814 9.6241865e-14 
       0.289      289    4143.0751   0.20778064 -9.1051871e-13 -1.1612033e-12     57.10648     57.10648   -98.038708   -98.038708 3.2039318e-14 
        0.29      290    4143.0751    0.2068209 -6.0000757e-13 -1.1919956e-12     57.10648     57.10648   -98.039279   -98.039279 7.915402e-14 
       0.291      291    4143.0751   0.20588448 -1.163502e-13 -6.3017888e-13     57.10648     57.10648   -98.039836   -98.039836 3.3323684e-14 
       0.292      292    4143.0751   0.20492047 -5.9419514e-13 -5.0966015e-13     57.10648     57.10648   -98.040411   -98.040411 -1.265187e-13 
       0.293      293    4143.0751   0.20395519 -1.499354e-12 -1.1042317e-12     57.10648     57.10648   -98.040987   -98.040987 -1.0126036e-13 
       0.294      294    4143.0751    0.2030076 -1.3641089e-12 -1.0030411e-12     57.10648     57.10648   -98.041552   -98.041552 -7.6741049e-14 
       0.295      295    4143.0751   0.20205068 -1.0874114e-12 -6.7373007e-13     57.10648     57.10648   -98.042121   -98.042121 2.9425916e-14 
       0.296      296    4143.0751    0.2010954 -6.0975767e-13 -6.3054672e-13     57.10648     57.10648    -98.04269    -98.04269 8.7608127e-14 
       0.297      297    4143.0751   0.20013864 -6.4163684e-13 -9.618446e-13     57.10648     57.10648   -98.043261   -98.043261  1.43113e-13 
       0.298      298    4143.0751   0.19917262 -5.474147e-13 -4.9916433e-13     57.10648     57.10648   -98.043837   -98.043837 -6.3264137e-14 
       0.299      299    4143.0751   0.19821018 -6.2772785e-13 -2.7253986e-13     57.10648     57.10648    -98.04441    -98.04441 2.0320673e-13 
         0.3      300    4143.0751   0.19726487 -1.0978323e-12 -8.3677055e-13     57.10648     57.10648   -98.044972   -98.044972 1.9232552e-14 
       0.301      301    4143.0751   0.19630149 -1.3568374e-12 -1.1870345e-12     57.10648     57.10648   -98.045546   -98.045546 1.5717309e-13 
       0.302      302    4143.0751   0.19533731 -9.6906522e-13 -1.3170974e-12     57.10648     57.10648   -98.046122   -98.046122 9.1373354e-14 
       0.303      303    4143.0751   0.19438444 -7.4707233e-13 -1.1155317e-12     57.10648     57.10648    -98.04669    -98.04669 2.7321807e-14 
       0.304      304    4143.0751   0.19341431 -6.371389e-13 -6.3146108e-13     57.10648     57.10648   -98.047268   -98.047268 2.0588769e-13 
       0.305      305    4143.0751   0.19246489 -8.4021032e-13 -5.9680904e-13     57.10648     57.10648   -98.047832   -98.047832 1.2467352e-13 
       0.306      306    4143.0751   0.19150607 -8.1053727e-13 -5.4309879e-13     57.10648     57.10648   -98.048404   -98.048404 -1.0611254e-14 
       0.307      307    4143.0751   0.19052875 -5.031054e-13 -7.1994763e-13     57.10648     57.10648   -98.048987   -98.048987 2.3191575e-13 
       0.308      308    4143.0751   0.18957177 -2.5079719e-13 -1.0849082e-12     57.10648     57.10648   -98.049558   -98.049558 1.5912806e-13 
       0.309      309    4143.0751    0.1886087 -5.6311722e-13 -1.0825721e-12     57.10648     57.10648   -98.050131   -98.050131 2.5301298e-13 
        0.31      310    4143.0751   0.18764354 -9.3509029e-13 -8.1677436e-13     57.10648     57.10648   -98.050705   -98.050705 9.9399587e-14 
       0.311      311    4143.0751   0.18668342 -7.5839056e-13 -7.4667781e-13     57.10648     57.10648   -98.051278   -98.051278 2.6657409e-13 
       0.312      312    4143.0751   0.18571633 -5.4769934e-13 -9.1390248e-13     57.10648     57.10648   -98.051855   -98.051855 1.855962e-13 
       0.313      313    4143.0751   0.18474402 -1.4113076e-12 -1.6432569e-12     57.10648     57.10648   -98.052434   -98.052434 1.1477569e-13 
       0.314      314    4143.0751   0.18378766 -1.4725273e-12 -1.803487e-12     57.10648     57.10648   -98.053003   -98.053003 1.9571543e-13 
       0.315      315    4143.0751   0.18282774 -9.5148887e-13 -1.8331363e-12     57.10648     57.10648   -98.053575   -98.053575 1.4502392e-14 
       0.316      316    4143.0751   0.18185235 -5.7466409e-13 -1.5572734e-12     57.10648     57.10648   -98.054157   -98.054157 1.4143866e-13 
       0.317      317    4143.0751   0.18089152 -5.6256751e-13 -1.5471742e-12     57.10648     57.10648    -98.05473    -98.05473 2.273808e-13 
       0.318      318    4143.0751   0.17991676 -9.1255614e-13 -1.7311635e-12     57.10648     57.10648   -98.055311   -98.055311 3.6645385e-14 
       0.319      319    4143.0751   0.17894946 -8.7141479e-13 -1.6323841e-12     57.10648     57.10648   -98.055886   -98.055886 1.5384484e-13 
        0.32      320    4143.0751   0.17799286 -7.3063681e-13 -9.705345e-13     57.10648     57.10648   -98.056456   -98.056456 1.2365869e-13 
       0.321      321    4143.0751   0.17701145 -6.9315671e-13 -8.1535048e-13     57.10648     57.10648   -98.057041   -98.057041 6.1621072e-14 
       0.322      322    4143.0751   0.17604455 -1.0680173e-12 -1.2709447e-12     57.10648     57.10648   -98.057618   -98.057618 1.1515509e-13 
       0.323      323    4143.0751   0.17508067 -1.2322845e-12 -1.5104479e-12     57.10648     57.10648   -98.058192   -98.058192 1.9044163e-13 
       0.324      324    4143.0751   0.17410805 -8.6351315e-13 -1.2763283e-12     57.10648     57.10648   -98.058771   -98.058771 -1.1526238e-13 
       0.325      325    4143.0751   0.17314124 -5.2914926e-13 -5.665188e-13     57.10648     57.10648   -98.059347   -98.059347 -5.2502903e-14 
       0.326      326    4143.0751   0.17216936 -4.3419715e-13 -5.1397303e-13     57.10648     57.10648   -98.059927   -98.059927 1.115226e-13 
       0.327      327    4143.0751   0.17119171 -8.2018347e-13 -7.2598014e-13     57.10648     57.10648    -98.06051    -98.06051 -8.3884958e-15 
       0.328      328    4143.0751   0.17022393 -8.7733318e-13 -9.5747797e-13     57.10648     57.10648   -98.061086   -98.061086 5.3098373e-14 
       0.329      329    4143.0751   0.16926044 -1.1961842e-12 -8.1122236e-13     57.10648     57.10648   -98.061659   -98.061659 2.3293501e-13 
        0.33      330    4143.0751   0.16827773 -1.3445809e-12 -1.4235464e-12     57.10648     57.10648   -98.062245   -98.062245 -2.9000684e-14 
       0.331      331    4143.0751    0.1673079 -1.3730293e-12 -1.8276421e-12     57.10648     57.10648   -98.062824   -98.062824 -9.077175e-14 
       0.332      332    4143.0751     0.166337 -1.1385697e-12 -1.4002286e-12     57.10648     57.10648   -98.063403   -98.063403 4.8754865e-14 
       0.333      333    4143.0751   0.16535653 -1.3030887e-12 -8.8962873e-13     57.10648     57.10648   -98.063986   -98.063986 2.2482199e-13 
       0.334      334    4143.0751   0.16439555 -1.4418833e-12 -1.0500342e-12     57.10648     57.10648   -98.064558   -98.064558 2.8254196e-13 
       0.335      335    4143.0751   0.16341417 -8.4678511e-13 -8.4776382e-13     57.10648     57.10648   -98.065143   -98.065143 2.6330812e-13 
       0.336      336    4143.0751    0.1624335 -2.9215483e-13 -5.3124084e-13     57.10648     57.10648   -98.065728   -98.065728 2.8296475e-13 
       0.337      337    4143.0751   0.16146859 -5.4069043e-13 -9.7845001e-13     57.10648     57.10648   -98.066303   -98.066303 2.713718e-13 
       0.338      338    4143.0751   0.16049199 -8.4284788e-13 -1.5768948e-12     57.10648     57.10648   -98.066884   -98.066884 1.0411024e-13 
       0.339      339    4143.0751   0.15951936 -6.1045985e-13 -1.6888599e-12     57.10648     57.10648   -98.067463   -98.067463 1.5917631e-13 
        0.34      340    4143.0751   0.15854441 -6.8640755e-13 -1.0857485e-12     57.10648     57.10648   -98.068045   -98.068045 4.7829785e-14 
       0.341      341    4143.0751    0.1575605 -1.1981417e-12 -8.9830519e-13     57.10648     57.10648   -98.068632   -98.068632 4.9753047e-14 
       0.342      342    4143.0751   0.15658199 -1.3750189e-12 -1.7289742e-12     57.10648     57.10648   -98.069215   -98.069215 5.9743504e-14 
       0.343      343    4143.0751   0.15561647 -6.1163054e-13 -2.0039457e-12     57.10648     57.10648   -98.069789   -98.069789 3.3253493e-14 
       0.344      344    4143.0751   0.15463631 -3.6377445e-13 -1.6699557e-12     57.10648     57.10648   -98.070373   -98.070373 -8.1456713e-14 
       0.345      345    4143.0751   0.15365395 -3.4811545e-13 -1.1478523e-12     57.10648     57.10648   -98.070959   -98.070959 -8.0912103e-14 
       0.346      346    4143.0751   0.15268257 -6.5090603e-13 -1.1394263e-12     57.10648     57.10648   -98.071539   -98.071539 1.2471474e-13 
       0.347      347    4143.0751   0.15169823 -9.5133688e-13 -1.1807406e-12     57.10648     57.10648   -98.072125   -98.072125 -8.4645005e-14 
       0.348      348    4143.0751   0.15073513 -1.0211488e-12 -9.2755804e-13     57.10648     57.10648   -98.072698   -98.072698 1.1426719e-13 
       0.349      349    4143.0751   0.14977956 -3.7445598e-13 -8.4719069e-13     57.10648     57.10648   -98.073267   -98.073267 -2.0262029e-16 
        0.35      350    4143.0751   0.14884004 -5.0810362e-13 -1.0690041e-12     57.10648     57.10648   -98.073828   -98.073828 4.7812661e-14 
       0.351      351    4143.0751   0.14797523 -8.0192368e-13 -1.2027849e-12     57.10648     57.10648   -98.074344   -98.074344 4.7018337e-14 
       0.352      352    4143.0751   0.14720078 -5.9021648e-13 -1.1406962e-12     57.10648     57.10648   -98.074804   -98.074804 1.9306429e-14 
       0.353      353    4143.0751   0.14657098 -2.9010117e-13 -6.6382195e-13     57.10648     57.10648   -98.075179   -98.075179 2.7417105e-14 
       0.354      354    4143.0751   0.14611102 -1.2792719e-13 -8.0065156e-13     57.10648     57.10648   -98.075453   -98.075453 -5.0616362e-14 
       0.355      355    4143.0751    0.1458014 -1.7874741e-13 -8.2426377e-13     57.10648     57.10648   -98.075638   -98.075638 4.6030802e-15 
       0.356      356    4143.0751    0.1456069 1.0238688e-13 -1.0505323e-12     57.10648     57.10648   -98.075754   -98.075754 4.3728972e-14 
       0.357      357    4143.0751   0.14547536 7.9966898e-15 -8.1024646e-13     57.10648     57.10648   -98.075832   -98.075832 9.4002574e-14 
Loop time of 21.2123 on 128 procs for 357 steps with 360800 atoms

94.8% CPU use with 128 MPI tasks x 1 OpenMP threads

Minimization stats:
  Stopping criterion = energy tolerance
  Energy initial, next-to-last, final = 
     -1486645.77951318  -1486647.82549146  -1486647.82549146
  Force two-norm initial, final = 7.1080974 5.2090967e-05
  Force max component initial, final = 0.19826945 3.8481260e-07
  Final line search alpha, max atom move = 1.0000000 3.8481260e-07
  Iterations, force evaluations = 357 714

MPI task timing breakdown:
Section |  min time  |  avg time  |  max time  |%varavg| %total
---------------------------------------------------------------
Pair    | 0.65953    | 2.6189     | 7.028      | 155.1 | 12.35
Neigh   | 0          | 0          | 0          |   0.0 |  0.00
Comm    | 0.023639   | 0.70963    | 2.2859     | 113.5 |  3.35
Output  | 9.4579     | 9.5494     | 9.5934     |   1.3 | 45.02
Modify  | 0          | 0          | 0          |   0.0 |  0.00
Other   |            | 8.334      |            |       | 39.29

Nlocal:        2818.75 ave        9200 max           0 min
Histogram: 88 0 0 0 0 0 0 0 1 39
Nghost:        3899.30 ave       13317 max           0 min
Histogram: 87 1 0 0 0 0 2 0 0 38
Neighs:         0.00000 ave           0 max           0 min
Histogram: 128 0 0 0 0 0 0 0 0 0
FullNghs:      472488.0 ave  1.5456e+06 max           0 min
Histogram: 88 0 0 0 0 0 0 1 0 39

Total # of neighbors = 60478400
Ave neighs/atom = 167.62306
Neighbor list builds = 0
Dangerous builds = 0
Setting up Verlet run ...
  Unit style    : metal
  Current step  : 357
  Time step     : 0.001
4143.075124 57.10648 0.145475363371221
Per MPI rank memory allocation (min/avg/max) = 2.046 | 3.215 | 5.894 Mbytes
Time Step Lx Pxx Pxy Pxz Ly Lz Pyy Pzz Pyz 
           0      357    4143.0751   0.14547536 1.7352485e-14 -8.232977e-13     57.10648     57.10648   -98.075832   -98.075832 6.1938687e-14 
4143.09583942741 57.10648 0.145474635996223
       0.001      358    4143.0958   0.14547464 1.7352398e-14 -8.2329358e-13     57.10648     57.10648   -98.075342   -98.075342 6.1938377e-14 
4143.11655495839 57.10648 -3.63072041634119
       0.002      359    4143.1166   -3.6307204 1.5166642e-13 -1.0791634e-12     57.10648     57.10648   -100.32633   -100.32633 -2.6415192e-14 
4143.13727059296 57.10648 -7.40698259479645
       0.003      360    4143.1373   -7.4069826 1.0193923e-13 -9.1890344e-13     57.10648     57.10648   -102.57729   -102.57729 -2.5549466e-13 
4143.1579863311 57.10648 -11.1833118986802
       0.004      361     4143.158   -11.183312 1.558411e-13 -1.0480035e-12     57.10648     57.10648   -104.82822   -104.82822 -6.6532408e-14 
4143.17870217282 57.10648 -14.9597083268386
       0.005      362    4143.1787   -14.959708 -6.2121226e-14 -9.3962211e-13     57.10648     57.10648   -107.07913   -107.07913 1.960223e-14 
4143.19941811812 57.10648 -18.7361718786238
       0.006      363    4143.1994   -18.736172 -8.5823707e-14 -1.0138289e-12     57.10648     57.10648   -109.33001   -109.33001 1.0467682e-13 
4143.220134167 57.10648 -22.5127025531344
       0.007      364    4143.2201   -22.512703 8.2906216e-14 -1.0257845e-12     57.10648     57.10648   -111.58086   -111.58086 -5.3869866e-14 
4143.24085031946 57.10648 -26.2893003493731
       0.008      365    4143.2409     -26.2893 -4.3353427e-14 -1.0338545e-12     57.10648     57.10648   -113.83168   -113.83168 -3.1188494e-14 
4143.26156657551 57.10648 -30.0659652666194
       0.009      366    4143.2616   -30.065965 -4.9505627e-14 -8.8109042e-13     57.10648     57.10648   -116.08248   -116.08248 2.1945075e-13 
4143.28228293513 57.10648 -33.8426973038803
        0.01      367    4143.2823   -33.842697 -1.5817516e-14 -8.967137e-13     57.10648     57.10648   -118.33325   -118.33325 1.9286246e-14 
4143.30299939834 57.10648 -37.6194964605497
       0.011      368     4143.303   -37.619496 1.359224e-13 -1.0540862e-12     57.10648     57.10648     -120.584     -120.584 -4.9253701e-14 
4143.32371596512 57.10648 -41.3963627357811
       0.012      369    4143.3237   -41.396363 -1.0687548e-13 -9.6842376e-13     57.10648     57.10648   -122.83471   -122.83471 8.4980956e-14 
4143.3444326355 57.10648 -45.1732961285408
       0.013      370    4143.3444   -45.173296 3.5683037e-14 -9.411264e-13     57.10648     57.10648    -125.0854    -125.0854 -1.514423e-14 
4143.36514940945 57.10648 -48.9502966383477
       0.014      371    4143.3651   -48.950297 -2.9930087e-14 -7.8290512e-13     57.10648     57.10648   -127.33607   -127.33607 8.8808564e-14 
4143.38586628699 57.10648 -52.7273642640091
       0.015      372    4143.3859   -52.727364 1.8568259e-13 -9.1956786e-13     57.10648     57.10648    -129.5867    -129.5867 -1.5932728e-13 
4143.40658326811 57.10648 -56.5044990049348
       0.016      373    4143.4066   -56.504499 -4.3188999e-15 -9.7429325e-13     57.10648     57.10648   -131.83731   -131.83731 -6.6223614e-14 
4143.42730035282 57.10648 -60.2817008601945
       0.017      374    4143.4273   -60.281701 1.1177673e-13 -1.0923887e-12     57.10648     57.10648    -134.0879    -134.0879 -1.8168716e-13 
4143.44801754112 57.10648 -64.0589698285244
       0.018      375     4143.448    -64.05897 1.3008081e-13 -9.0962978e-13     57.10648     57.10648   -136.33845   -136.33845 -7.257185e-14 
4143.468734833 57.10648 -67.8363059072562
       0.019      376    4143.4687   -67.836306 1.0235753e-13 -9.4643076e-13     57.10648     57.10648   -138.58898   -138.58898 2.811154e-14 
4143.48945222847 57.10648 -71.6137091004555
        0.02      377    4143.4895   -71.613709 1.5401246e-13 -1.1552552e-12     57.10648     57.10648   -140.83948   -140.83948 -1.5959465e-13 
4143.51016972752 57.10648 -75.3911794124287
       0.021      378    4143.5102   -75.391179 -8.1181066e-16 -9.0286952e-13     57.10648     57.10648   -143.08996   -143.08996 -1.6311834e-14 
4143.53088733016 57.10648 -79.1687168419495
       0.022      379    4143.5309   -79.168717 -6.020193e-14 -9.3092522e-13     57.10648     57.10648   -145.34041   -145.34041 -5.0058941e-14 
4143.55160503639 57.10648 -82.9463213884058
       0.023      380    4143.5516   -82.946321 3.804098e-14 -1.0410773e-12     57.10648     57.10648   -147.59083   -147.59083 8.9885891e-15 
4143.57232284621 57.10648 -86.7239930510087
       0.024      381    4143.5723   -86.723993 2.0363993e-13 -1.0407904e-12     57.10648     57.10648   -149.84122   -149.84122 4.0420494e-14 
4143.59304075962 57.10648 -90.5017318285875
       0.025      382     4143.593   -90.501732 -6.2955846e-14 -9.4437765e-13     57.10648     57.10648   -152.09159   -152.09159 6.1334957e-14 
4143.61375877662 57.10648 -94.2795377205959
       0.026      383    4143.6138   -94.279538 3.5883956e-14 -1.0405402e-12     57.10648     57.10648   -154.34193   -154.34193 -2.1766019e-14 
4143.63447689721 57.10648 -98.0574107262249
       0.027      384    4143.6345   -98.057411 -1.242967e-14 -1.0267006e-12     57.10648     57.10648   -156.59225   -156.59225 -1.9335475e-14 
4143.65519512139 57.10648 -101.835350843951
       0.028      385    4143.6552   -101.83535 4.4340779e-14 -8.8231778e-13     57.10648     57.10648   -158.84253   -158.84253 1.1507712e-13 
4143.67591344916 57.10648 -105.613358073783
       0.029      386    4143.6759   -105.61336 6.8225116e-14 -1.0140578e-12     57.10648     57.10648   -161.09279   -161.09279 6.6685062e-14 
4143.69663188053 57.10648 -109.391432414247
        0.03      387    4143.6966   -109.39143 7.5446272e-14 -8.9890341e-13     57.10648     57.10648   -163.34303   -163.34303 3.2832606e-15 
4143.71735041548 57.10648 -113.169573865089
       0.031      388    4143.7174   -113.16957 1.1646442e-13 -7.9147271e-13     57.10648     57.10648   -165.59323   -165.59323 -1.3107249e-14 
4143.73806905403 57.10648 -116.947782425017
       0.032      389    4143.7381   -116.94778 1.8150849e-13 -9.2119215e-13     57.10648     57.10648   -167.84341   -167.84341 4.2310482e-15 
4143.75878779617 57.10648 -120.726058093372
       0.033      390    4143.7588   -120.72606  5.11516e-14 -9.9881803e-13     57.10648     57.10648   -170.09356   -170.09356 -6.3223541e-15 
4143.77950664191 57.10648 -124.504400869217
       0.034      391    4143.7795    -124.5044 1.8325595e-13 -1.0764676e-12     57.10648     57.10648   -172.34369   -172.34369 -5.4997811e-14 
4143.80022559124 57.10648 -128.282810751672
       0.035      392    4143.8002   -128.28281 -2.6439782e-14 -1.0166376e-12     57.10648     57.10648   -174.59379   -174.59379 -9.6060212e-14 
4143.82094464416 57.10648 -132.061287740177
       0.036      393    4143.8209   -132.06129 4.2853558e-14 -1.0072087e-12     57.10648     57.10648   -176.84386   -176.84386 -3.7692885e-14 
4143.84166380069 57.10648 -135.83983183349
       0.037      394    4143.8417   -135.83983 9.0605689e-14 -7.516742e-13     57.10648     57.10648    -179.0939    -179.0939 -1.146004e-13 
4143.8623830608 57.10648 -139.618443031081
       0.038      395    4143.8624   -139.61844 8.2922521e-14 -9.5097496e-13     57.10648     57.10648   -181.34392   -181.34392 6.172862e-14 
4143.88310242452 57.10648 -143.39712133174
       0.039      396    4143.8831   -143.39712 3.4621328e-14 -9.3033263e-13     57.10648     57.10648   -183.59391   -183.59391 -1.0595715e-14 
4143.90382189183 57.10648 -147.175866735253
        0.04      397    4143.9038   -147.17587 1.9207533e-13 -9.4057613e-13     57.10648     57.10648   -185.84388   -185.84388 -1.5610104e-13 
4143.92454146273 57.10648 -150.954679240297
       0.041      398    4143.9245   -150.95468 9.0748282e-14 -8.786376e-13     57.10648     57.10648   -188.09381   -188.09381 -1.1859189e-13 
4143.94526113724 57.10648 -154.733558846159
       0.042      399    4143.9453   -154.73356 -3.6733731e-14 -1.0567244e-12     57.10648     57.10648   -190.34372   -190.34372 2.5909303e-14 
4143.96598091535 57.10648 -158.512505551905
       0.043      400     4143.966   -158.51251 -3.6241055e-14 -8.9149407e-13     57.10648     57.10648   -192.59361   -192.59361 -8.4962091e-15 
4143.98670079705 57.10648 -162.29151932978
       0.044      401    4143.9867   -162.29152 2.2744574e-14 -1.1371118e-12     57.10648     57.10648   -194.84346   -194.84346 1.5329261e-14 
4144.00742078235 57.10648 -166.070600052768
       0.045      402    4144.0074    -166.0706 2.0662053e-13 -9.923844e-13     57.10648     57.10648   -197.09329   -197.09329 -9.2941588e-14 
4144.02814087126 57.10648 -169.849747878675
       0.046      403    4144.0281   -169.84975 -2.6140438e-14 -9.1929392e-13     57.10648     57.10648    -199.3431    -199.3431 -5.4330461e-14 
4144.04886106376 57.10648 -173.628962806899
       0.047      404    4144.0489   -173.62896 1.4584616e-13 -1.0786721e-12     57.10648     57.10648   -201.59287   -201.59287 8.2827513e-14 
4144.06958135987 57.10648 -177.408244836293
       0.048      405    4144.0696   -177.40824 -2.963543e-14 -9.4683993e-13     57.10648     57.10648   -203.84262   -203.84262 -1.0111977e-13 
4144.09030175958 57.10648 -181.187593909793
       0.049      406    4144.0903   -181.18759 1.2383442e-13 -1.0433687e-12     57.10648     57.10648   -206.09234   -206.09234 -1.8161886e-14 
4144.11102226289 57.10648 -184.967010063013
        0.05      407     4144.111   -184.96701 -1.1107949e-14 -9.928986e-13     57.10648     57.10648   -208.34204   -208.34204 -4.2708362e-14 
4144.1317428698 57.10648 -188.746493318033
       0.051      408    4144.1317   -188.74649 3.1596109e-14 -9.3735549e-13     57.10648     57.10648   -210.59171   -210.59171 5.7719572e-14 
4144.15246358032 57.10648 -192.526043674051
       0.052      409    4144.1525   -192.52604 1.0954457e-13 -1.2226174e-12     57.10648     57.10648   -212.84135   -212.84135 8.7271459e-14 
4144.17318439444 57.10648 -196.305661130317
       0.053      410    4144.1732   -196.30566 -8.5480775e-15 -1.0124872e-12     57.10648     57.10648   -215.09096   -215.09096 -2.4367931e-14 
4144.19390531216 57.10648 -200.085345685999
       0.054      411    4144.1939   -200.08535 -1.1835158e-13 -9.9706914e-13     57.10648     57.10648   -217.34055   -217.34055 -4.853539e-14 
4144.21462633349 57.10648 -203.865097340522
       0.055      412    4144.2146    -203.8651 1.3642604e-13 -9.5041603e-13     57.10648     57.10648   -219.59011   -219.59011 5.6421301e-14 
4144.23534745842 57.10648 -207.644916092265
       0.056      413    4144.2353   -207.64492 3.5337522e-14 -1.2350708e-12     57.10648     57.10648   -221.83964   -221.83964 4.7186625e-15 
4144.25606868696 57.10648 -211.424801940705
       0.057      414    4144.2561    -211.4248 4.3704417e-14 -9.6553022e-13     57.10648     57.10648   -224.08915   -224.08915 -1.1280601e-14 
4144.27679001911 57.10648 -215.204754885152
       0.058      415    4144.2768   -215.20475 1.1286436e-13 -9.3307844e-13     57.10648     57.10648   -226.33863   -226.33863 -1.1402366e-13 
4144.29751145486 57.10648 -218.984774924503
       0.059      416    4144.2975   -218.98477 7.7844032e-14 -1.0145498e-12     57.10648     57.10648   -228.58808   -228.58808 1.6614927e-13 
4144.31823299423 57.10648 -222.764862058177
        0.06      417    4144.3182   -222.76486 -1.6681719e-14 -9.3532064e-13     57.10648     57.10648   -230.83751   -230.83751 1.8518553e-14 
4144.3389546372 57.10648 -226.545016285055
       0.061      418     4144.339   -226.54502 2.5097183e-14 -9.4970474e-13     57.10648     57.10648   -233.08691   -233.08691 -1.4061031e-13 
4144.35967638377 57.10648 -230.325237604539
       0.062      419    4144.3597   -230.32524 -1.7935752e-14 -9.2380094e-13     57.10648     57.10648   -235.33628   -235.33628 -4.5178079e-14 
4144.38039823396 57.10648 -234.105526015308
       0.063      420    4144.3804   -234.10553 1.043546e-13 -1.0411021e-12     57.10648     57.10648   -237.58562   -237.58562 -9.9535218e-14 
4144.40112018775 57.10648 -237.885881516812
       0.064      421    4144.4011   -237.88588 -5.5401357e-15 -1.0488374e-12     57.10648     57.10648   -239.83494   -239.83494 3.8593055e-14 
4144.42184224516 57.10648 -241.666304108184
       0.065      422    4144.4218    -241.6663 8.3896317e-16 -1.1315435e-12     57.10648     57.10648   -242.08423   -242.08423 -5.2704498e-14 
4144.44256440618 57.10648 -245.446793788563
       0.066      423    4144.4426   -245.44679 -2.5423505e-14 -8.9142791e-13     57.10648     57.10648    -244.3335    -244.3335 1.6680379e-14 
4144.46328667081 57.10648 -249.227350556928
       0.067      424    4144.4633   -249.22735 -9.4310699e-14 -9.3098145e-13     57.10648     57.10648   -246.58273   -246.58273 9.8245218e-14 
4144.48400903904 57.10648 -253.007974412655
       0.068      425     4144.484   -253.00797 2.2867338e-13 -9.7347353e-13     57.10648     57.10648   -248.83194   -248.83194 -4.5827672e-14 
4144.5047315109 57.10648 -256.788665350775
       0.069      426    4144.5047   -256.78867 2.6974184e-14 -1.0055305e-12     57.10648     57.10648   -251.08113   -251.08113 -1.9937407e-13 
4144.52545408636 57.10648 -260.569423347655
        0.07      427    4144.5255   -260.56942 6.0137214e-14 -1.1066647e-12     57.10648     57.10648   -253.33029   -253.33029 -6.4815637e-14 
4144.54617676544 57.10648 -264.350248398574
       0.071      428    4144.5462   -264.35025 2.1924453e-13 -8.6750933e-13     57.10648     57.10648   -255.57942   -255.57942 -4.2634473e-14 
4144.56689954813 57.10648 -268.131140502712
       0.072      429    4144.5669   -268.13114 1.8871743e-13 -9.110193e-13     57.10648     57.10648   -257.82852   -257.82852 4.5817186e-14 
4144.58762243443 57.10648 -271.912099659118
       0.073      430    4144.5876    -271.9121 8.9902344e-14 -9.0049434e-13     57.10648     57.10648   -260.07759   -260.07759 -6.0570244e-15 
4144.60834542435 57.10648 -275.69312586553
       0.074      431    4144.6083   -275.69313 2.7634394e-15 -1.0308494e-12     57.10648     57.10648   -262.32664   -262.32664 -7.6959928e-15 
4144.62906851789 57.10648 -279.474219121736
       0.075      432    4144.6291   -279.47422 3.548884e-14 -9.3298751e-13     57.10648     57.10648   -264.57567   -264.57567 1.4922172e-14 
4144.64979171504 57.10648 -283.255379427224
       0.076      433    4144.6498   -283.25538 3.0296072e-14 -1.0399144e-12     57.10648     57.10648   -266.82466   -266.82466 -1.5148032e-14 
4144.6705150158 57.10648 -287.036606783912
       0.077      434    4144.6705   -287.03661 6.0346831e-14 -8.9839823e-13     57.10648     57.10648   -269.07363   -269.07363 -1.0545013e-13 
4144.69123842019 57.10648 -290.817901199074
       0.078      435    4144.6912    -290.8179 2.5426581e-13 -9.5664458e-13     57.10648     57.10648   -271.32257   -271.32257 8.2935276e-14 
4144.71196192819 57.10648 -294.599262672465
       0.079      436     4144.712   -294.59926 1.0749041e-13 -8.9110245e-13     57.10648     57.10648   -273.57149   -273.57149 -7.1251492e-14 
4144.73268553981 57.10648 -298.380691203584
        0.08      437    4144.7327   -298.38069 -1.0536859e-13 -1.0748887e-12     57.10648     57.10648   -275.82037   -275.82037 -1.0678893e-13 
4144.75340925504 57.10648 -302.162186791411
       0.081      438    4144.7534   -302.16219 9.2277357e-14 -9.8470601e-13     57.10648     57.10648   -278.06923   -278.06923 6.3850234e-15 
4144.7741330739 57.10648 -305.943749434913
       0.082      439    4144.7741   -305.94375 5.2047414e-14 -9.404574e-13     57.10648     57.10648   -280.31807   -280.31807 -7.7073672e-14 
4144.79485699637 57.10648 -309.725379133627
       0.083      440    4144.7949   -309.72538 1.1209521e-13 -1.1363111e-12     57.10648     57.10648   -282.56688   -282.56688 1.2032997e-14 
4144.81558102247 57.10648 -313.507075886376
       0.084      441    4144.8156   -313.50708 -3.1156213e-15 -9.1142989e-13     57.10648     57.10648   -284.81566   -284.81566 2.0467912e-14 
4144.83630515219 57.10648 -317.288839692578
       0.085      442    4144.8363   -317.28884 4.8901316e-14 -9.5909515e-13     57.10648     57.10648   -287.06441   -287.06441 3.3568868e-14 
4144.85702938552 57.10648 -321.070670551246
       0.086      443     4144.857   -321.07067 -5.7461282e-15 -9.6141123e-13     57.10648     57.10648   -289.31313   -289.31313 -5.8805126e-15 
4144.87775372248 57.10648 -324.852568461565
       0.087      444    4144.8778   -324.85257 -7.1638907e-15 -8.8221998e-13     57.10648     57.10648   -291.56183   -291.56183 1.421094e-13 
4144.89847816306 57.10648 -328.634533422619
       0.088      445    4144.8985   -328.63453 -4.1227461e-15 -9.7086006e-13     57.10648     57.10648   -293.81051   -293.81051 3.0062625e-14 
4144.91920270726 57.10648 -332.416565433497
       0.089      446    4144.9192   -332.41657 -2.7949983e-15 -9.1576253e-13     57.10648     57.10648   -296.05915   -296.05915 -8.2530717e-14 
4144.93992735509 57.10648 -336.198664493604
        0.09      447    4144.9399   -336.19866 -1.7271157e-15 -8.5909303e-13     57.10648     57.10648   -298.30777   -298.30777 9.8239986e-15 
4144.96065210654 57.10648 -339.980830602064
       0.091      448    4144.9607   -339.98083 2.4648275e-14 -9.2066206e-13     57.10648     57.10648   -300.55636   -300.55636 5.0620439e-14 
4144.98137696161 57.10648 -343.763063758357
       0.092      449    4144.9814   -343.76306 1.2811937e-13 -8.2458056e-13     57.10648     57.10648   -302.80493   -302.80493 2.448563e-14 
4145.0021019203 57.10648 -347.545363961257
       0.093      450    4145.0021   -347.54536 2.7812914e-14 -1.0443069e-12     57.10648     57.10648   -305.05346   -305.05346 -7.2228879e-14 
4145.02282698263 57.10648 -351.32773121019
       0.094      451    4145.0228   -351.32773 1.7999939e-13 -8.3553753e-13     57.10648     57.10648   -307.30198   -307.30198 -2.0736749e-14 
4145.04355214858 57.10648 -355.11016550414
       0.095      452    4145.0436   -355.11017 1.9323338e-13 -8.3412026e-13     57.10648     57.10648   -309.55046   -309.55046 -4.5277175e-14 
4145.06427741815 57.10648 -358.892666842285
       0.096      453    4145.0643   -358.89267 9.3409249e-14 -9.2562518e-13     57.10648     57.10648   -311.79892   -311.79892 -8.3488171e-15 
4145.08500279135 57.10648 -362.675235223715
       0.097      454     4145.085   -362.67524 2.0172019e-13 -9.3603734e-13     57.10648     57.10648   -314.04735   -314.04735 5.1339569e-16 
4145.10572826818 57.10648 -366.457870647677
       0.098      455    4145.1057   -366.45787 1.6703258e-14 -1.015817e-12     57.10648     57.10648   -316.29575   -316.29575 -1.5705559e-13 
4145.12645384863 57.10648 -370.240573113208
       0.099      456    4145.1265   -370.24057 -3.855969e-14 -1.1401354e-12     57.10648     57.10648   -318.54413   -318.54413 1.7524272e-13 
4145.14717953272 57.10648 -374.023342619396
         0.1      457    4145.1472   -374.02334 4.025169e-14 -9.6646181e-13     57.10648     57.10648   -320.79248   -320.79248 3.9643047e-14 
4145.16790532043 57.10648 -377.806179164229
       0.101      458    4145.1679   -377.80618 9.1970875e-14 -9.2721639e-13     57.10648     57.10648    -323.0408    -323.0408 -4.47135e-15 
4145.18863121177 57.10648 -381.589082747025
       0.102      459    4145.1886   -381.58908 9.2929089e-14 -1.0856133e-12     57.10648     57.10648   -325.28909   -325.28909 -7.6581916e-14 
4145.20935720674 57.10648 -385.372053367354
       0.103      460    4145.2094   -385.37205 1.1448845e-13 -9.5839866e-13     57.10648     57.10648   -327.53736   -327.53736 -1.1790176e-14 
4145.23008330534 57.10648 -389.155091024786
       0.104      461    4145.2301   -389.15509 1.7550682e-13 -1.0967123e-12     57.10648     57.10648    -329.7856    -329.7856 -4.4575621e-14 
4145.25080950757 57.10648 -392.938195718203
       0.105      462    4145.2508    -392.9382 7.2330086e-14 -1.0437483e-12     57.10648     57.10648   -332.03382   -332.03382 -9.6918078e-14 
4145.27153581344 57.10648 -396.721367447162
       0.106      463    4145.2715   -396.72137 -1.6182398e-14 -1.0155484e-12     57.10648     57.10648   -334.28201   -334.28201 5.2219064e-14 
4145.29226222293 57.10648 -400.504606210218
       0.107      464    4145.2923   -400.50461 1.3940352e-13 -1.008347e-12     57.10648     57.10648   -336.53017   -336.53017 -5.0340728e-16 
4145.31298873606 57.10648 -404.287912006875
       0.108      465     4145.313   -404.28791 -1.3012065e-14 -9.7998928e-13     57.10648     57.10648    -338.7783    -338.7783 -8.0865416e-14 
4145.33371535282 57.10648 -408.071284836049
       0.109      466    4145.3337   -408.07128 1.009324e-13 -9.6119346e-13     57.10648     57.10648   -341.02641   -341.02641 -3.2704348e-14 
4145.35444207321 57.10648 -411.854724697181
        0.11      467    4145.3544   -411.85472 3.3231031e-14 -1.0137327e-12     57.10648     57.10648   -343.27449   -343.27449 -1.5401594e-14 
4145.37516889724 57.10648 -415.638231589377
       0.111      468    4145.3752   -415.63823 1.4712982e-13 -8.7013524e-13     57.10648     57.10648   -345.52254   -345.52254 7.302573e-14 
4145.3958958249 57.10648 -419.421805511591
       0.112      469    4145.3959   -419.42181 1.2481146e-13 -8.5689473e-13     57.10648     57.10648   -347.77057   -347.77057 6.8966008e-14 
4145.4166228562 57.10648 -423.205446464409
       0.113      470    4145.4166   -423.20545 -4.2008446e-14 -1.0464068e-12     57.10648     57.10648   -350.01857   -350.01857 9.9263236e-14 
4145.43734999113 57.10648 -426.989154448714
       0.114      471    4145.4373   -426.98915 8.1669449e-14 -8.7574318e-13     57.10648     57.10648   -352.26654   -352.26654 1.473862e-13 
4145.4580772297 57.10648 -430.772929460502
       0.115      472    4145.4581   -430.77293 1.462076e-13 -1.0021908e-12     57.10648     57.10648   -354.51449   -354.51449 1.1327587e-14 
4145.4788045719 57.10648 -434.556771499224
       0.116      473    4145.4788   -434.55677 1.8704164e-13 -9.919779e-13     57.10648     57.10648    -356.7624    -356.7624 -4.3744367e-14 
4145.49953201774 57.10648 -438.340680563991
       0.117      474    4145.4995   -438.34068 1.9004729e-13 -1.0540343e-12     57.10648     57.10648    -359.0103    -359.0103 -8.5760773e-14 
4145.52025956722 57.10648 -442.124656653837
       0.118      475    4145.5203   -442.12466 1.0084309e-13 -9.9524064e-13     57.10648     57.10648   -361.25816   -361.25816 1.1434077e-13 
4145.54098722034 57.10648 -445.908700430293
       0.119      476     4145.541    -445.9087 4.5162138e-14  -8.4678e-13     57.10648     57.10648     -363.506     -363.506 -7.1285788e-14 
4145.5617149771 57.10648 -449.69281251391
        0.12      477    4145.5617   -449.69281 6.6919713e-15 -1.0600015e-12     57.10648     57.10648   -365.75381   -365.75381 -4.0956886e-14 
4145.58244283749 57.10648 -453.476991712689
       0.121      478    4145.5824   -453.47699 1.7903686e-13 -8.7356213e-13     57.10648     57.10648    -368.0016    -368.0016 -1.1705565e-13 
4145.60317080152 57.10648 -457.261238026049
       0.122      479    4145.6032   -457.26124 1.5230132e-14 -1.0567383e-12     57.10648     57.10648   -370.24936   -370.24936 5.1594138e-14 
4145.6238988692 57.10648 -461.045551451601
       0.123      480    4145.6239   -461.04555 1.8899252e-13 -9.8719837e-13     57.10648     57.10648   -372.49709   -372.49709 7.4777539e-14 
4145.64462704051 57.10648 -464.829931988174
       0.124      481    4145.6446   -464.82993 -4.0267951e-14 -1.0258791e-12     57.10648     57.10648    -374.7448    -374.7448 1.5850847e-13 
4145.66535531547 57.10648 -468.614379635685
       0.125      482    4145.6654   -468.61438 3.4876556e-14 -1.0261015e-12     57.10648     57.10648   -376.99248   -376.99248 -9.8031297e-14 
4145.68608369407 57.10648 -472.39889439243
       0.126      483    4145.6861   -472.39889 -5.9144126e-14 -9.4724364e-13     57.10648     57.10648   -379.24013   -379.24013 -5.363748e-14 
4145.70681217631 57.10648 -476.18347631279
       0.127      484    4145.7068   -476.18348 -4.2912124e-14 -9.0163593e-13     57.10648     57.10648   -381.48775   -381.48775 5.6776575e-14 
4145.72754076219 57.10648 -479.968125577414
       0.128      485    4145.7275   -479.96813 -1.6844338e-13 -9.4454385e-13     57.10648     57.10648   -383.73535   -383.73535 3.7127677e-14 
4145.74826945171 57.10648 -483.752842114472
       0.129      486    4145.7483   -483.75284 5.9292916e-14 -1.0139399e-12     57.10648     57.10648   -385.98292   -385.98292 -2.5648705e-14 
4145.76899824488 57.10648 -487.537625923208
        0.13      487     4145.769   -487.53763 1.2048457e-13 -8.9319207e-13     57.10648     57.10648   -388.23047   -388.23047 -6.0027131e-15 
4145.7897271417 57.10648 -491.322477002628
       0.131      488    4145.7897   -491.32248 4.0065482e-14 -1.0022705e-12     57.10648     57.10648   -390.47799   -390.47799 -1.1017564e-13 
4145.81045614215 57.10648 -495.107395351924
       0.132      489    4145.8105    -495.1074 -4.3165707e-14 -8.5536252e-13     57.10648     57.10648   -392.72548   -392.72548 -1.6861277e-13 
4145.83118524626 57.10648 -498.892380970428
[...]
       0.901     1258    4161.7818   -3425.6302 -5.9914287e-15 -1.0854749e-12     57.10648     57.10648   -2113.1011   -2113.1011 -8.1894732e-15 
4161.80259150526 57.10648 -3429.46690806717
       0.902     1259    4161.8026   -3429.4669 1.5848867e-14 -8.9995925e-13     57.10648     57.10648   -2115.3279   -2115.3279 1.8154849e-13 
4161.82340057024 57.10648 -3433.30372960398
       0.903     1260    4161.8234   -3433.3037 1.4785886e-13 -9.4644736e-13     57.10648     57.10648   -2117.5547   -2117.5547 1.1498628e-13 
4161.84420973927 57.10648 -3437.1406183986
       0.904     1261    4161.8442   -3437.1406 -4.8047779e-14 -8.9557229e-13     57.10648     57.10648   -2119.7815   -2119.7815 5.7814431e-16 
4161.86501901234 57.10648 -3440.97757444989
       0.905     1262     4161.865   -3440.9776 -1.2841342e-13 -8.1627416e-13     57.10648     57.10648   -2122.0082   -2122.0082 -6.6319315e-14 
4161.88582838946 57.10648 -3444.81459775758
       0.906     1263    4161.8858   -3444.8146 1.8923453e-14 -9.068844e-13     57.10648     57.10648   -2124.2349   -2124.2349 4.9778787e-14 
4161.90663787062 57.10648 -3448.65168832067
       0.907     1264    4161.9066   -3448.6517 1.3689842e-14 -1.0080527e-12     57.10648     57.10648   -2126.4616   -2126.4616 -7.4186008e-14 
4161.92744745584 57.10648 -3452.48884613803
       0.908     1265    4161.9274   -3452.4888 8.4232861e-14 -9.3715199e-13     57.10648     57.10648   -2128.6883   -2128.6883 3.9452772e-14 
4161.9482571451 57.10648 -3456.32607120909
       0.909     1266    4161.9483   -3456.3261 9.0010834e-15 -8.3825509e-13     57.10648     57.10648   -2130.9149   -2130.9149 5.6851832e-14 
4161.96906693841 57.10648 -3460.16336351383
        0.91     1267    4161.9691   -3460.1634 1.1329621e-13 -9.7787222e-13     57.10648     57.10648   -2133.1415   -2133.1415 1.3509776e-14 
4161.98987683577 57.10648 -3464.0007231914
       0.911     1268    4161.9899   -3464.0007 -3.1106246e-15 -9.3081457e-13     57.10648     57.10648   -2135.3681   -2135.3681 5.7500105e-14 
4162.01068683718 57.10648 -3467.83815025816
       0.912     1269    4162.0107   -3467.8382 -4.9884265e-14 -9.8910939e-13     57.10648     57.10648   -2137.5947   -2137.5947 6.3300073e-14 
4162.03149694264 57.10648 -3471.67564471348
       0.913     1270    4162.0315   -3471.6756 -1.0503917e-13 -1.0654783e-12     57.10648     57.10648   -2139.8212   -2139.8212 -9.6005419e-14 
4162.05230715215 57.10648 -3475.5132065566
       0.914     1271    4162.0523   -3475.5132 2.7505023e-13 -9.3436031e-13     57.10648     57.10648   -2142.0477   -2142.0477 -1.4351413e-13 
4162.07311746571 57.10648 -3479.35083578657
       0.915     1272    4162.0731   -3479.3508 5.0505821e-14 -9.1964279e-13     57.10648     57.10648   -2144.2742   -2144.2742 1.0714538e-13 
4162.09392788332 57.10648 -3483.18853240248
       0.916     1273    4162.0939   -3483.1885 6.2029285e-14 -1.0617185e-12     57.10648     57.10648   -2146.5006   -2146.5006 1.5904041e-14 
4162.11473840499 57.10648 -3487.02629640363
       0.917     1274    4162.1147   -3487.0263 4.3605256e-14 -9.2277934e-13     57.10648     57.10648    -2148.727    -2148.727 -1.7943826e-14 
4162.13554903071 57.10648 -3490.864127789
       0.918     1275    4162.1355   -3490.8641 1.1421373e-13 -1.0170116e-12     57.10648     57.10648   -2150.9534   -2150.9534 -4.9238672e-14 
4162.15635976048 57.10648 -3494.70202655801
       0.919     1276    4162.1564    -3494.702 -2.4847911e-14 -1.0264098e-12     57.10648     57.10648   -2153.1798   -2153.1798 -1.3825403e-13 
4162.1771705943 57.10648 -3498.53999270939
        0.92     1277    4162.1772     -3498.54 -8.9924913e-14 -8.9608898e-13     57.10648     57.10648   -2155.4061   -2155.4061 9.6162066e-14 
4162.19798153218 57.10648 -3502.37802624259
       0.921     1278     4162.198    -3502.378 1.423367e-14 -9.2105405e-13     57.10648     57.10648   -2157.6324   -2157.6324 3.8635658e-14 
4162.21879257412 57.10648 -3506.21612715673
       0.922     1279    4162.2188   -3506.2161 1.3252672e-13 -1.0269727e-12     57.10648     57.10648   -2159.8587   -2159.8587 -3.1689904e-14 
4162.23960372011 57.10648 -3510.05429545111
       0.923     1280    4162.2396   -3510.0543 1.2153662e-13 -9.7317726e-13     57.10648     57.10648    -2162.085    -2162.085 -2.9374791e-14 
4162.26041497016 57.10648 -3513.89253112452
       0.924     1281    4162.2604   -3513.8925 1.1024656e-13 -1.0271413e-12     57.10648     57.10648   -2164.3112   -2164.3112 -5.6957863e-15 
4162.28122632426 57.10648 -3517.73083417632
       0.925     1282    4162.2812   -3517.7308 3.7271915e-14 -9.562036e-13     57.10648     57.10648   -2166.5374   -2166.5374 5.088386e-15 
4162.30203778242 57.10648 -3521.56920460555
       0.926     1283     4162.302   -3521.5692 6.593127e-14 -8.0941896e-13     57.10648     57.10648   -2168.7636   -2168.7636 4.5530835e-14 
4162.32284934464 57.10648 -3525.40764241129
       0.927     1284    4162.3228   -3525.4076 -9.6587871e-14 -1.0147694e-12     57.10648     57.10648   -2170.9897   -2170.9897 -4.2563841e-14 
4162.34366101091 57.10648 -3529.24614759264
       0.928     1285    4162.3437   -3529.2461 1.0274693e-13 -9.9488658e-13     57.10648     57.10648   -2173.2158   -2173.2158 -5.1974228e-14 
4162.36447278125 57.10648 -3533.08472014908
       0.929     1286    4162.3645   -3533.0847 -7.2364571e-16 -9.5090449e-13     57.10648     57.10648   -2175.4419   -2175.4419 -6.6646828e-14 
4162.38528465564 57.10648 -3536.9233600795
        0.93     1287    4162.3853   -3536.9234 1.1265761e-13 -1.1057345e-12     57.10648     57.10648    -2177.668    -2177.668 2.8661942e-14 
4162.40609663409 57.10648 -3540.76206738324
       0.931     1288    4162.4061   -3540.7621 1.7839699e-13 -8.1495094e-13     57.10648     57.10648    -2179.894    -2179.894 -2.2353975e-14 
4162.42690871661 57.10648 -3544.60084206524
       0.932     1289    4162.4269   -3544.6008 -2.0863074e-14 -1.0271645e-12     57.10648     57.10648   -2182.1201   -2182.1201 3.4082444e-14 
4162.44772090318 57.10648 -3548.43968412294
       0.933     1290    4162.4477   -3548.4397 4.2179381e-15 -1.0509131e-12     57.10648     57.10648    -2184.346    -2184.346 6.3597121e-14 
4162.46853319382 57.10648 -3552.27859355124
       0.934     1291    4162.4685   -3552.2786 9.6960543e-14 -1.0204911e-12     57.10648     57.10648    -2186.572    -2186.572 -5.015958e-14 
4162.48934558851 57.10648 -3556.11757034903
       0.935     1292    4162.4893   -3556.1176 -1.1214025e-14 -8.3188569e-13     57.10648     57.10648   -2188.7979   -2188.7979 -3.0191745e-14 
4162.51015808727 57.10648 -3559.95661451591
       0.936     1293    4162.5102   -3559.9566 8.5036935e-14 -9.1160832e-13     57.10648     57.10648   -2191.0238   -2191.0238 6.776603e-14 
4162.53097069009 57.10648 -3563.79572605067
       0.937     1294     4162.531   -3563.7957 1.1400308e-13 -8.7564578e-13     57.10648     57.10648   -2193.2497   -2193.2497 1.4517204e-13 
4162.55178339698 57.10648 -3567.63490495281
       0.938     1295    4162.5518   -3567.6349 5.0362957e-14 -1.1005149e-12     57.10648     57.10648   -2195.4756   -2195.4756 -1.0557268e-13 
4162.57259620793 57.10648 -3571.47415122175
       0.939     1296    4162.5726   -3571.4742 5.4629378e-14 -9.3850433e-13     57.10648     57.10648   -2197.7014   -2197.7014 -2.768995e-14 
4162.59340912294 57.10648 -3575.31346485628
        0.94     1297    4162.5934   -3575.3135 4.6444421e-14 -9.8500282e-13     57.10648     57.10648   -2199.9272   -2199.9272 -1.0637141e-13 
4162.61422214202 57.10648 -3579.15284585622
       0.941     1298    4162.6142   -3579.1528 1.0607075e-14 -9.8546013e-13     57.10648     57.10648    -2202.153    -2202.153 1.5780117e-14 
4162.63503526516 57.10648 -3582.99229423638
       0.942     1299     4162.635   -3582.9923 1.9345552e-13 -1.0125385e-12     57.10648     57.10648   -2204.3787   -2204.3787 7.2743225e-14 
4162.65584849237 57.10648 -3586.83180999275
       0.943     1300    4162.6558   -3586.8318 -6.6812344e-14 -9.2778613e-13     57.10648     57.10648   -2206.6044   -2206.6044 3.4714911e-14 
4162.67666182365 57.10648 -3590.67139312367
       0.944     1301    4162.6767   -3590.6714 1.4214356e-13 -9.2983749e-13     57.10648     57.10648   -2208.8301   -2208.8301 -7.307018e-14 
4162.69747525899 57.10648 -3594.51104362916
       0.945     1302    4162.6975    -3594.511 -8.7017853e-14 -8.7506809e-13     57.10648     57.10648   -2211.0558   -2211.0558 8.7657048e-14 
4162.7182887984 57.10648 -3598.35076150756
       0.946     1303    4162.7183   -3598.3508 2.4741692e-14 -1.0534144e-12     57.10648     57.10648   -2213.2814   -2213.2814 9.9472379e-14 
4162.73910244188 57.10648 -3602.19054675835
       0.947     1304    4162.7391   -3602.1905 3.7384822e-14 -1.1719653e-12     57.10648     57.10648    -2215.507    -2215.507 4.198906e-14 
4162.75991618943 57.10648 -3606.0303993811
       0.948     1305    4162.7599   -3606.0304 -5.3675022e-14 -1.0196474e-12     57.10648     57.10648   -2217.7326   -2217.7326 -5.1747634e-14 
4162.78073004104 57.10648 -3609.87031937487
       0.949     1306    4162.7807   -3609.8703 9.4992481e-14 -9.6458655e-13     57.10648     57.10648   -2219.9582   -2219.9582 -7.4372513e-14 
4162.80154399673 57.10648 -3613.71030673819
        0.95     1307    4162.8015   -3613.7103 1.601527e-13 -8.470443e-13     57.10648     57.10648   -2222.1837   -2222.1837 4.4114217e-14 
4162.82235805648 57.10648 -3617.55036147083
       0.951     1308    4162.8224   -3617.5504 6.575347e-14 -1.1044506e-12     57.10648     57.10648   -2224.4092   -2224.4092 -7.2628002e-14 
4162.84317222031 57.10648 -3621.39048357169
       0.952     1309    4162.8432   -3621.3905 1.7586202e-14 -1.0229495e-12     57.10648     57.10648   -2226.6347   -2226.6347 8.9533639e-15 
4162.8639864882 57.10648 -3625.23067303813
       0.953     1310     4162.864   -3625.2307 2.9137427e-14 -1.074113e-12     57.10648     57.10648   -2228.8601   -2228.8601 3.8062609e-14 
4162.88480086017 57.10648 -3629.07092984698
       0.954     1311    4162.8848   -3629.0709 4.3617627e-15 -9.7171532e-13     57.10648     57.10648   -2231.0855   -2231.0855 1.1737476e-13 
4162.90561533621 57.10648 -3632.91125399047
       0.955     1312    4162.9056   -3632.9113 1.0145486e-13 -9.5308767e-13     57.10648     57.10648   -2233.3109   -2233.3109 2.0353378e-13 
4162.92642991633 57.10648 -3636.75164546785
       0.956     1313    4162.9264   -3636.7516 1.5449683e-13 -9.4035243e-13     57.10648     57.10648   -2235.5363   -2235.5363 7.4195132e-14 
4162.94724460051 57.10648 -3640.5921042782
       0.957     1314    4162.9472   -3640.5921 3.6369921e-14 -9.7647596e-13     57.10648     57.10648   -2237.7616   -2237.7616 2.4942579e-14 
4162.96805938877 57.10648 -3644.43263042045
       0.958     1315    4162.9681   -3644.4326 -4.2552518e-14 -1.0132285e-12     57.10648     57.10648   -2239.9869   -2239.9869 -1.7772296e-14 
4162.98887428111 57.10648 -3648.27322389389
       0.959     1316    4162.9889   -3648.2732 1.8083954e-14 -1.0519492e-12     57.10648     57.10648   -2242.2122   -2242.2122 -4.9830505e-14 
4163.00968927752 57.10648 -3652.11388469661
        0.96     1317    4163.0097   -3652.1139 -6.0200405e-14 -9.9814728e-13     57.10648     57.10648   -2244.4375   -2244.4375 -1.2359066e-13 
4163.030504378 57.10648 -3655.95461282873
       0.961     1318    4163.0305   -3655.9546 3.2569065e-14 -8.4546033e-13     57.10648     57.10648   -2246.6627   -2246.6627 -1.0464859e-13 
4163.05131958256 57.10648 -3659.79540828969
       0.962     1319    4163.0513   -3659.7954 2.6655047e-14 -1.0015632e-12     57.10648     57.10648   -2248.8879   -2248.8879 2.6633165e-14 
4163.0721348912 57.10648 -3663.63627107847
       0.963     1320    4163.0721   -3663.6363 -3.8871117e-14 -9.4106138e-13     57.10648     57.10648   -2251.1131   -2251.1131 -1.1581621e-13 
4163.09295030391 57.10648 -3667.47720119436
       0.964     1321     4163.093   -3667.4772 -4.5852821e-14 -9.5993755e-13     57.10648     57.10648   -2253.3382   -2253.3382 4.6482001e-14 
4163.1137658207 57.10648 -3671.31819863648
       0.965     1322    4163.1138   -3671.3182 1.106744e-13 -9.9605016e-13     57.10648     57.10648   -2255.5634   -2255.5634 4.691158e-15 
4163.13458144157 57.10648 -3675.15926340411
       0.966     1323    4163.1346   -3675.1593 -5.5638944e-14 -1.1458377e-12     57.10648     57.10648   -2257.7885   -2257.7885 -7.4113319e-14 
4163.15539716651 57.10648 -3679.00039549625
       0.967     1324    4163.1554   -3679.0004 3.4595417e-14 -8.8812637e-13     57.10648     57.10648   -2260.0135   -2260.0135 6.0549381e-14 
4163.17621299554 57.10648 -3682.8415949106
       0.968     1325    4163.1762   -3682.8416 5.4679718e-14 -9.5824064e-13     57.10648     57.10648   -2262.2386   -2262.2386 -4.9968838e-14 
4163.19702892864 57.10648 -3686.68286164812
       0.969     1326     4163.197   -3686.6829 4.3888389e-14 -9.060798e-13     57.10648     57.10648   -2264.4636   -2264.4636 -7.7454046e-14 
4163.21784496583 57.10648 -3690.52419570819
        0.97     1327    4163.2178   -3690.5242 2.5873008e-13 -1.1522028e-12     57.10648     57.10648   -2266.6886   -2266.6886 -1.3941913e-14 
4163.23866110709 57.10648 -3694.3655970897
       0.971     1328    4163.2387   -3694.3656 8.1660479e-14 -8.9980263e-13     57.10648     57.10648   -2268.9135   -2268.9135 5.6764091e-14 
4163.25947735244 57.10648 -3698.20706579228
       0.972     1329    4163.2595   -3698.2071 -2.4249383e-14 -9.4083632e-13     57.10648     57.10648   -2271.1385   -2271.1385 7.3170226e-14 
4163.28029370187 57.10648 -3702.04860181478
       0.973     1330    4163.2803   -3702.0486 -1.0470339e-14 -8.6651557e-13     57.10648     57.10648   -2273.3634   -2273.3634 7.7386465e-15 
4163.30111015538 57.10648 -3705.89020515622
       0.974     1331    4163.3011   -3705.8902 -5.3729326e-14 -1.1498819e-12     57.10648     57.10648   -2275.5882   -2275.5882 3.7938474e-14 
4163.32192671297 57.10648 -3709.73187581003
       0.975     1332    4163.3219   -3709.7319 1.0258325e-13 -9.1518681e-13     57.10648     57.10648   -2277.8131   -2277.8131 8.912095e-14 
4163.34274337464 57.10648 -3713.57361377807
       0.976     1333    4163.3427   -3713.5736 1.0317943e-15 -8.8719864e-13     57.10648     57.10648   -2280.0379   -2280.0379 -5.9868065e-14 
4163.3635601404 57.10648 -3717.41541906362
       0.977     1334    4163.3636   -3717.4154 3.2519137e-14 -1.0973659e-12     57.10648     57.10648   -2282.2627   -2282.2627 -1.0204963e-13 
4163.38437701024 57.10648 -3721.25729166609
       0.978     1335    4163.3844   -3721.2573 1.5303647e-13 -9.0539469e-13     57.10648     57.10648   -2284.4875   -2284.4875 -4.9049855e-14 
4163.40519398417 57.10648 -3725.09923158422
       0.979     1336    4163.4052   -3725.0992 -1.3023862e-16 -1.0949073e-12     57.10648     57.10648   -2286.7122   -2286.7122 -1.8050337e-14 
4163.42601106219 57.10648 -3728.9412385221
        0.98     1337     4163.426   -3728.9412 -2.8572256e-14 -9.4950086e-13     57.10648     57.10648    -2288.937    -2288.937 -1.6370692e-13 
4163.44682824428 57.10648 -3732.78330874931
       0.981     1338    4163.4468   -3732.7833 3.7847274e-14 -1.1153292e-12     57.10648     57.10648   -2291.1616   -2291.1616 1.9965578e-13 
4163.46764553047 57.10648 -3736.62544672871
       0.982     1339    4163.4676   -3736.6254 1.8394148e-14 -1.0780648e-12     57.10648     57.10648   -2293.3863   -2293.3863 -2.3098827e-14 
4163.48846292074 57.10648 -3740.46765249233
       0.983     1340    4163.4885   -3740.4677 -4.9584695e-15 -1.0944483e-12     57.10648     57.10648   -2295.6109   -2295.6109 -1.1964157e-13 
4163.5092804151 57.10648 -3744.3099260396
       0.984     1341    4163.5093   -3744.3099 -5.6833832e-14 -1.0062266e-12     57.10648     57.10648   -2297.8355   -2297.8355 -2.320124e-14 
4163.53009801354 57.10648 -3748.15226736941
       0.985     1342    4163.5301   -3748.1523 8.6866024e-14 -9.572644e-13     57.10648     57.10648   -2300.0601   -2300.0601 -3.9403572e-14 
4163.55091571608 57.10648 -3751.99467648108
       0.986     1343    4163.5509   -3751.9947 6.855375e-14 -9.9955372e-13     57.10648     57.10648   -2302.2847   -2302.2847 -1.2509498e-14 
4163.5717335227 57.10648 -3755.83715337357
       0.987     1344    4163.5717   -3755.8372 7.9661993e-14 -8.4378123e-13     57.10648     57.10648   -2304.5092   -2304.5092 4.0747444e-14 
4163.59255143341 57.10648 -3759.67969788461
       0.988     1345    4163.5926   -3759.6797 1.5578649e-13 -8.9143034e-13     57.10648     57.10648   -2306.7337   -2306.7337 -2.8037369e-14 
4163.61336944822 57.10648 -3763.52231017001
       0.989     1346    4163.6134   -3763.5223 -8.4051358e-14 -1.0207163e-12     57.10648     57.10648   -2308.9582   -2308.9582 -5.9338175e-14 
4163.63418756711 57.10648 -3767.36499029246
        0.99     1347    4163.6342    -3767.365 1.4393984e-13 -9.5689524e-13     57.10648     57.10648   -2311.1826   -2311.1826 -2.8829731e-14 
4163.65500579009 57.10648 -3771.20773825074
       0.991     1348     4163.655   -3771.2077 5.6189873e-14  -9.0469e-13     57.10648     57.10648    -2313.407    -2313.407 5.3295657e-14 
4163.67582411717 57.10648 -3775.0505540429
       0.992     1349    4163.6758   -3775.0506 2.2697509e-13 -1.025635e-12     57.10648     57.10648   -2315.6314   -2315.6314 7.4999259e-14 
4163.69664254833 57.10648 -3778.89343767042
       0.993     1350    4163.6966   -3778.8934 -5.4038951e-14 -9.2520805e-13     57.10648     57.10648   -2317.8558   -2317.8558 4.3396114e-14 
4163.71746108359 57.10648 -3782.73638913221
       0.994     1351    4163.7175   -3782.7364 1.5147664e-13 -9.6835392e-13     57.10648     57.10648   -2320.0802   -2320.0802 -1.1727398e-14 
4163.73827972294 57.10648 -3786.57940842781
       0.995     1352    4163.7383   -3786.5794 1.1596146e-13 -9.4026259e-13     57.10648     57.10648   -2322.3045   -2322.3045  4.00949e-14 
4163.75909846639 57.10648 -3790.42249555615
       0.996     1353    4163.7591   -3790.4225 1.532509e-13 -1.0352471e-12     57.10648     57.10648   -2324.5288   -2324.5288 5.4379972e-14 
4163.77991731393 57.10648 -3794.2656505161
       0.997     1354    4163.7799   -3794.2657 6.7164613e-14 -9.2757456e-13     57.10648     57.10648    -2326.753    -2326.753 1.3664661e-14 
4163.80073626556 57.10648 -3798.10887330657
       0.998     1355    4163.8007   -3798.1089 -1.0899444e-13 -9.0676413e-13     57.10648     57.10648   -2328.9773   -2328.9773 -8.7729778e-14 
4163.82155532129 57.10648 -3801.95216392306
       0.999     1356    4163.8216   -3801.9522 1.0529619e-13 -9.181251e-13     57.10648     57.10648   -2331.2015   -2331.2015 -8.3219172e-14 
4163.84237448112 57.10648 -3805.79552237069
           1     1357    4163.8424   -3805.7955 7.7889197e-14 -9.8421404e-13     57.10648     57.10648   -2333.4256   -2333.4256 7.7716146e-14 
Loop time of 37.6391 on 128 procs for 1000 steps with 360800 atoms

Performance: 2.295 ns/day, 10.455 hours/ns, 26.568 timesteps/s
95.0% CPU use with 128 MPI tasks x 1 OpenMP threads

MPI task timing breakdown:
Section |  min time  |  avg time  |  max time  |%varavg| %total
---------------------------------------------------------------
Pair    | 0.84846    | 3.6585     | 9.8241     | 186.3 |  9.72
Neigh   | 0.028172   | 0.049295   | 0.069566   |   2.6 |  0.13
Comm    | 0.15016    | 1.3851     | 3.9906     | 144.0 |  3.68
Output  | 20.779     | 20.828     | 20.832     |   0.1 | 55.34
Modify  | 2.197      | 10.89      | 14.957     | 159.2 | 28.93
Other   |            | 0.8276     |            |       |  2.20

Nlocal:        2818.75 ave        9200 max           0 min
Histogram: 88 0 0 0 0 0 0 0 1 39
Nghost:        3888.73 ave       13317 max           0 min
Histogram: 87 1 0 0 0 0 2 0 0 38
Neighs:         0.00000 ave           0 max           0 min
Histogram: 128 0 0 0 0 0 0 0 0 0
FullNghs:      472488.0 ave  1.5456e+06 max           0 min
Histogram: 88 0 0 0 0 0 0 1 0 39

Total # of neighbors = 60478400
Ave neighs/atom = 167.62306
Neighbor list builds = 13
Dangerous builds = 0
