LAMMPS (29 Sep 2021 - Update 1)
KOKKOS mode is enabled (../kokkos.cpp:97)
  will use up to 4 GPU(s) per node
  using 1 OpenMP thread(s) per MPI task
Reading data file ...
  orthogonal box = (0.0000000 0.0000000 0.0000000) to (4143.0751 57.106480 57.106480)
  128 by 1 by 1 MPI processor grid
  reading atoms ...
  360800 atoms
  read_data CPU = 7.701 seconds
800 atoms in group source
800 atoms in group detector
400 atoms in group edge
400 atoms in group edge_buf
120000 atoms in group buffer
WARNING: Using 'neigh_modify every 1 delay 0 check yes' setting during minimization (../min.cpp:188)
Neighbor list info ...
  update every 1 steps, delay 0 steps, check yes
  max neighbors/atom: 2000, page size: 100000
  master list distance cutoff = 7.6
  ghost atom cutoff = 7.6
  binsize = 7.6, bins = 546 8 8
  1 neighbor lists, perpetual/occasional/extra = 1 0 0
  (1) pair eam/alloy/kk, perpetual
      attributes: full, newton off, kokkos_device
      pair build: full/bin/kk/device
      stencil: full/bin/3d
      bin: kk/device
Setting up cg/kk style minimization ...
  Unit style    : metal
  Current step  : 0
WARNING: Fixes cannot yet send exchange data in Kokkos communication, switching to classic exchange/border communication (../comm_kokkos.cpp:581)
Per MPI rank memory allocation (min/avg/max) = 2.254 | 3.806 | 7.377 Mbytes
Time Step Lx Pxx Pxy Pxz Ly Lz Pyy Pzz Pyz 
           0        0    4143.0751    12.766153 -4.3011125e-14 -2.3659022e-14     57.10648     57.10648   -85.456504   -85.456504 -4.0584771e-15 
       0.001        1    4143.0751    4.9624194 -2.0284055e-14 3.688817e-15     57.10648     57.10648   -95.172201   -95.172201 -5.0782027e-13 
       0.002        2    4143.0751    2.7193318 -4.0971889e-14 -2.4583292e-14     57.10648     57.10648   -97.006352   -97.006352 3.8253053e-13 
       0.003        3    4143.0751    3.2072967 -8.7071238e-14 -9.0225248e-14     57.10648     57.10648   -96.140203   -96.140203 -1.3042823e-13 
       0.004        4    4143.0751    2.6400573 9.4778164e-14 1.7426197e-13     57.10648     57.10648   -96.501525   -96.501525 4.4927924e-13 
       0.005        5    4143.0751    1.8692697 -2.874333e-14 1.1572686e-13     57.10648     57.10648   -97.038029   -97.038029 8.7055589e-14 
       0.006        6    4143.0751    1.5880349 1.2867943e-13 -1.1157739e-13     57.10648     57.10648   -97.222835   -97.222835 -4.5301762e-13 
       0.007        7    4143.0751    1.4304795 -2.3007952e-14 1.3115583e-13     57.10648     57.10648   -97.302236   -97.302236 -9.338476e-14 
       0.008        8    4143.0751    1.3102667 1.3445567e-13 2.432842e-14     57.10648     57.10648   -97.373091   -97.373091 -1.0493698e-13 
       0.009        9    4143.0751    1.1651506 -2.4441238e-14 -9.0249074e-14     57.10648     57.10648   -97.467596   -97.467596  1.95181e-13 
        0.01       10    4143.0751    1.0801049 -1.1451865e-13 -3.4785535e-14     57.10648     57.10648   -97.519517   -97.519517 -6.7318608e-14 
       0.011       11    4143.0751    1.0182961 -1.115903e-13 -1.5459873e-13     57.10648     57.10648    -97.55383    -97.55383 -1.4802717e-13 
       0.012       12    4143.0751   0.96492776 5.7300286e-14 4.4806705e-14     57.10648     57.10648   -97.585187   -97.585187 1.3484657e-13 
       0.013       13    4143.0751   0.90630688 -1.7714338e-13 -7.1311842e-14     57.10648     57.10648   -97.622306   -97.622306 -1.43257e-13 
       0.014       14    4143.0751   0.86458184 -1.4580872e-13 6.8384343e-14     57.10648     57.10648   -97.647661   -97.647661 1.3422446e-14 
       0.015       15    4143.0751   0.83242506 -6.3799755e-14 4.8741494e-14     57.10648     57.10648   -97.665622   -97.665622 -8.5666943e-15 
       0.016       16    4143.0751   0.80214445 3.7727207e-14 1.2429452e-13     57.10648     57.10648   -97.683642   -97.683642 8.548972e-14 
       0.017       17    4143.0751   0.77060995 2.7976149e-14 1.6757524e-13     57.10648     57.10648   -97.703317   -97.703317 5.0148326e-14 
       0.018       18    4143.0751   0.74604836 -7.4879003e-14 2.9713376e-14     57.10648     57.10648   -97.718075   -97.718075 9.3118333e-14 
       0.019       19    4143.0751    0.7261273 -2.9485815e-14 2.1344959e-13     57.10648     57.10648   -97.729394   -97.729394 1.1538525e-13 
        0.02       20    4143.0751   0.70656472 -6.4140226e-14 3.6963922e-14     57.10648     57.10648   -97.741056   -97.741056 -9.9200371e-14 
       0.021       21    4143.0751   0.68688549 7.1710319e-13 5.7913773e-14     57.10648     57.10648   -97.753242   -97.753242 -3.4266274e-13 
       0.022       22    4143.0751   0.67069045 5.897145e-12 -2.7526145e-13     57.10648     57.10648   -97.762917   -97.762917 -3.2090361e-12 
       0.023       23    4143.0751   0.65753684 3.8950134e-11 -3.0180203e-12     57.10648     57.10648   -97.770453   -97.770453 -1.9997245e-11 
       0.024       24    4143.0751   0.64676325 1.3081749e-10 -1.3109102e-11     57.10648     57.10648   -97.776858   -97.776858 -6.422999e-11 
       0.025       25    4143.0751   0.63571525 4.7157862e-11 -5.6088089e-12     57.10648     57.10648   -97.783609   -97.783609 -1.9860021e-11 
       0.026       26    4143.0751   0.62405384 1.4346533e-11 1.4259144e-12     57.10648     57.10648   -97.790727   -97.790727 -2.1923914e-12 
       0.027       27    4143.0751   0.61326748 3.4390544e-11 2.3807593e-11     57.10648     57.10648   -97.797027   -97.797027 3.9955103e-13 
       0.028       28    4143.0751   0.60490954 1.2245201e-10 9.4592216e-11     57.10648     57.10648   -97.801888   -97.801888 6.7407446e-13 
       0.029       29    4143.0751   0.59724792 1.0501468e-10 7.057704e-11     57.10648     57.10648   -97.806488   -97.806488 -2.3697344e-12 
        0.03       30    4143.0751   0.58819007 2.7438631e-11 1.0482164e-11     57.10648     57.10648   -97.812035   -97.812035 -2.2999273e-12 
       0.031       31    4143.0751   0.57978587 4.4260602e-11 2.5896135e-11     57.10648     57.10648   -97.817067   -97.817067 -2.3170925e-12 
       0.032       32    4143.0751    0.5730791 1.1966048e-10 7.9900493e-11     57.10648     57.10648    -97.82096    -97.82096 -3.2171087e-13 
       0.033       33    4143.0751   0.56737855 8.1785009e-11 3.8308251e-11     57.10648     57.10648   -97.824306   -97.824306 1.5958349e-12 
       0.034       34    4143.0751   0.56001046 4.2626302e-11 3.7015968e-12     57.10648     57.10648   -97.828767   -97.828767 1.4833739e-12 
       0.035       35    4143.0751   0.55331419 8.6172104e-11 1.2109823e-11     57.10648     57.10648   -97.832839   -97.832839 4.4766821e-12 
       0.036       36    4143.0751   0.54801806 1.4451733e-10 2.7586489e-11     57.10648     57.10648   -97.835974   -97.835974 7.9034826e-12 
       0.037       37    4143.0751   0.54284067 5.5835667e-11 9.1803916e-12     57.10648     57.10648   -97.838988   -97.838988 3.1370425e-12 
       0.038       38    4143.0751   0.53718738 4.6827843e-11 1.4316422e-11     57.10648     57.10648   -97.842341   -97.842341 1.8552767e-12 
       0.039       39    4143.0751   0.53180543 7.8835547e-11 3.7146167e-11     57.10648     57.10648   -97.845613   -97.845613 5.2316559e-13 
        0.04       40    4143.0751    0.5273364 5.2025558e-11 1.8411653e-11     57.10648     57.10648   -97.848314   -97.848314 -9.8980099e-13 
       0.041       41    4143.0751   0.52241312 2.7026196e-11 4.0991892e-12     57.10648     57.10648   -97.851214   -97.851214 -6.7947542e-13 
       0.042       42    4143.0751   0.51801758 4.0739653e-11 1.7942213e-11     57.10648     57.10648   -97.853785   -97.853785 5.8064353e-14 
       0.043       43    4143.0751   0.51403135 4.5621504e-11 2.7827492e-11     57.10648     57.10648    -97.85617    -97.85617 -1.8912364e-15 
       0.044       44    4143.0751   0.50962972 1.7745162e-11 9.1186072e-12     57.10648     57.10648   -97.858842   -97.858842 3.1702543e-13 
       0.045       45    4143.0751   0.50537502 2.033035e-11 1.0755671e-11     57.10648     57.10648   -97.861394   -97.861394 2.8119385e-12 
       0.046       46    4143.0751   0.50180772 2.5400344e-11 1.5983545e-11     57.10648     57.10648   -97.863486   -97.863486 5.1106277e-12 
       0.047       47    4143.0751   0.49841558 9.4914119e-12 6.319552e-12     57.10648     57.10648   -97.865477   -97.865477 2.1300564e-12 
       0.048       48    4143.0751   0.49441834 6.4468584e-12 5.6465377e-12     57.10648     57.10648   -97.867881   -97.867881 4.7679271e-13 
       0.049       49    4143.0751   0.49090223 1.0543082e-11 1.1091367e-11     57.10648     57.10648    -97.87001    -97.87001 4.9319086e-13 
        0.05       50    4143.0751   0.48776092 5.6851596e-12 6.3972367e-12     57.10648     57.10648   -97.871884   -97.871884 -4.2650528e-14 
       0.051       51    4143.0751   0.48442506 5.5359802e-13 3.2336336e-12     57.10648     57.10648   -97.873839   -97.873839 -1.6224581e-13 
       0.052       52    4143.0751   0.48130236 2.4719204e-12 9.6880407e-12     57.10648     57.10648   -97.875687   -97.875687 -1.4459091e-14 
       0.053       53    4143.0751   0.47832267 1.6936091e-12 8.8674416e-12     57.10648     57.10648   -97.877483   -97.877483 -4.2540329e-13 
       0.054       54    4143.0751   0.47523629 -1.048523e-12 3.4988259e-12     57.10648     57.10648   -97.879348   -97.879348 -4.9443304e-13 
       0.055       55    4143.0751   0.47225043 4.1448822e-13 9.0144617e-12     57.10648     57.10648   -97.881117   -97.881117 8.8291182e-13 
       0.056       56    4143.0751   0.46974233 1.7312543e-12 1.0344665e-11     57.10648     57.10648   -97.882589   -97.882589 1.574694e-12 
       0.057       57    4143.0751   0.46704811 -8.3018067e-14 3.1169012e-12     57.10648     57.10648   -97.884189   -97.884189 1.2247258e-12 
       0.058       58    4143.0751    0.4641215 8.3814828e-14 2.0137582e-12     57.10648     57.10648   -97.885957   -97.885957 1.8157477e-12 
       0.059       59    4143.0751   0.46164577 2.700667e-12 4.9369721e-12     57.10648     57.10648   -97.887445   -97.887445 2.648453e-12 
        0.06       60    4143.0751   0.45917359 2.9026404e-12 4.8232728e-12     57.10648     57.10648   -97.888906   -97.888906 1.9585594e-12 
       0.061       61    4143.0751   0.45670414 5.1061834e-12 6.6850316e-12     57.10648     57.10648   -97.890358   -97.890358 2.5192921e-12 
       0.062       62    4143.0751   0.45436667 9.2203503e-12 1.1688996e-11     57.10648     57.10648   -97.891756   -97.891756 4.6284403e-12 
       0.063       63    4143.0751   0.45205485 4.873353e-12 6.9585741e-12     57.10648     57.10648   -97.893151   -97.893151 3.0191202e-12 
       0.064       64    4143.0751   0.44965762 6.2690246e-12 5.0413213e-12     57.10648     57.10648   -97.894587   -97.894587 3.4666359e-12 
       0.065       65    4143.0751   0.44749172 1.3021482e-11 7.4527735e-12     57.10648     57.10648   -97.895862   -97.895862 6.512811e-12 
       0.066       66    4143.0751   0.44551541 8.6258451e-12 5.8029283e-12     57.10648     57.10648   -97.897029   -97.897029 4.9817205e-12 
       0.067       67    4143.0751   0.44324231 5.1619606e-12 4.6344813e-12     57.10648     57.10648   -97.898391   -97.898391 3.6973456e-12 
       0.068       68    4143.0751    0.4411245 6.6239481e-12 5.9014159e-12     57.10648     57.10648   -97.899668   -97.899668 4.4413542e-12 
       0.069       69    4143.0751   0.43917492 4.2293942e-12 4.2532832e-12     57.10648     57.10648   -97.900831   -97.900831 3.0272545e-12 
        0.07       70    4143.0751   0.43713733 8.985933e-13 2.1821445e-12     57.10648     57.10648   -97.902031   -97.902031 1.5904309e-12 
       0.071       71    4143.0751   0.43523012 5.3362888e-13 2.5032152e-12     57.10648     57.10648   -97.903161   -97.903161 1.5375104e-12 
       0.072       72    4143.0751    0.4333358 -3.6363597e-13 1.8613281e-12     57.10648     57.10648   -97.904298   -97.904298 6.208162e-13 
       0.073       73    4143.0751   0.43136413 -2.178229e-13 1.3457917e-12     57.10648     57.10648   -97.905485   -97.905485 -2.5101587e-13 
       0.074       74    4143.0751   0.42949825 1.0556037e-12 3.0777627e-12     57.10648     57.10648   -97.906593   -97.906593 -3.5456269e-13 
       0.075       75    4143.0751   0.42780898 -1.7583949e-13 1.5948049e-12     57.10648     57.10648   -97.907589   -97.907589 -4.7070543e-13 
       0.076       76    4143.0751   0.42598923 -7.9627413e-13 -1.4594925e-13     57.10648     57.10648    -97.90867    -97.90867 -3.7953649e-13 
       0.077       77    4143.0751   0.42413306 8.0793269e-13 5.3602697e-13     57.10648     57.10648   -97.909787   -97.909787 -3.3686905e-13 
       0.078       78    4143.0751   0.42250218 1.107051e-12 1.3867676e-12     57.10648     57.10648   -97.910766   -97.910766 -6.1191632e-13 
       0.079       79    4143.0751   0.42078512 -6.8271849e-13 7.1008174e-13     57.10648     57.10648   -97.911783   -97.911783 -3.7870195e-13 
        0.08       80    4143.0751   0.41914692 -3.5134829e-13 7.935262e-13     57.10648     57.10648    -97.91275    -97.91275 8.653888e-14 
       0.081       81    4143.0751   0.41758371 -6.9944294e-14 7.5675373e-13     57.10648     57.10648   -97.913682   -97.913682 2.381777e-13 
       0.082       82    4143.0751   0.41588352 -1.140158e-12 4.2128554e-13     57.10648     57.10648   -97.914705   -97.914705 -1.4291209e-13 
       0.083       83    4143.0751   0.41424091 -1.7785153e-12 1.1324546e-12     57.10648     57.10648   -97.915688   -97.915688 -8.4492676e-14 
       0.084       84    4143.0751      0.41275 -1.6150101e-12 1.4568177e-12     57.10648     57.10648   -97.916569   -97.916569 -1.2730666e-13 
       0.085       85    4143.0751   0.41125489 -1.5591254e-12 6.2294075e-13     57.10648     57.10648   -97.917453   -97.917453 -2.8979154e-13 
       0.086       86    4143.0751   0.40967292 -2.1526559e-12 1.2493692e-12     57.10648     57.10648   -97.918399   -97.918399 1.3980413e-13 
       0.087       87    4143.0751   0.40820508 -1.5429406e-12 1.601697e-12     57.10648     57.10648   -97.919282   -97.919282 4.205676e-13 
       0.088       88    4143.0751   0.40671577 -8.2800369e-13 1.3424212e-12     57.10648     57.10648   -97.920171   -97.920171 1.951805e-13 
       0.089       89    4143.0751   0.40524227 -5.6048292e-13 9.4859392e-13     57.10648     57.10648   -97.921041   -97.921041 4.6490215e-13 
        0.09       90    4143.0751   0.40389712 -2.0758492e-13 8.4920578e-13     57.10648     57.10648   -97.921839   -97.921839 8.3432399e-13 
       0.091       91    4143.0751   0.40242985 -3.7236893e-13 4.4032743e-13     57.10648     57.10648   -97.922717   -97.922717 5.1141903e-13 
       0.092       92    4143.0751   0.40098003 -5.5931694e-13 4.3949581e-13     57.10648     57.10648   -97.923588   -97.923588 2.8345872e-13 
       0.093       93    4143.0751   0.39964578 -9.3770522e-13 1.0933988e-12     57.10648     57.10648   -97.924382   -97.924382 9.7154443e-14 
       0.094       94    4143.0751   0.39828627 -8.2231092e-13 1.308072e-12     57.10648     57.10648   -97.925186   -97.925186 -1.8358592e-13 
       0.095       95    4143.0751   0.39691929 -9.1375307e-13 1.3616757e-12     57.10648     57.10648   -97.925998   -97.925998 -6.8893098e-13 
       0.096       96    4143.0751   0.39559442 -7.133284e-13 1.5961329e-12     57.10648     57.10648   -97.926792   -97.926792 -7.6453548e-13 
       0.097       97    4143.0751   0.39425983 -4.1189032e-13 1.5228367e-12     57.10648     57.10648   -97.927593   -97.927593 -4.9566781e-13 
       0.098       98    4143.0751   0.39292298 -5.8745267e-13 8.5508074e-13     57.10648     57.10648   -97.928387   -97.928387 -6.1584637e-13 
       0.099       99    4143.0751   0.39170433 -2.308732e-13 2.120339e-13     57.10648     57.10648   -97.929107   -97.929107 -2.3585084e-13 
         0.1      100    4143.0751   0.39042363 1.3094894e-13 1.0790572e-13     57.10648     57.10648    -97.92987    -97.92987 1.621427e-13 
       0.101      101    4143.0751   0.38909848 -9.1888718e-14 5.1156401e-13     57.10648     57.10648   -97.930665   -97.930665 1.7363431e-13 
       0.102      102    4143.0751   0.38787784 -3.8227669e-13 8.6912863e-13     57.10648     57.10648   -97.931396   -97.931396 1.6057443e-13 
       0.103      103    4143.0751   0.38661448 -1.0310598e-13 8.7011866e-13     57.10648     57.10648   -97.932145   -97.932145 3.7553084e-14 
       0.104      104    4143.0751   0.38539311 -3.1948777e-13 1.0006352e-12     57.10648     57.10648   -97.932868   -97.932868 -1.6381819e-13 
       0.105      105    4143.0751   0.38421435 -7.8005415e-13 1.1168878e-12     57.10648     57.10648   -97.933571   -97.933571 -3.2042957e-13 
       0.106      106    4143.0751   0.38296563 -7.1405144e-13 1.1433318e-12     57.10648     57.10648   -97.934321   -97.934321 -2.4908445e-13 
       0.107      107    4143.0751   0.38173856 -7.4261647e-13 8.9054889e-13     57.10648     57.10648   -97.935053   -97.935053 -3.7415374e-13 
       0.108      108    4143.0751   0.38059683 -6.3727905e-13 5.155605e-13     57.10648     57.10648    -97.93573    -97.93573 -3.9942068e-13 
       0.109      109    4143.0751    0.3794365 -4.2578698e-13 3.3876348e-13     57.10648     57.10648   -97.936417   -97.936417 -4.1730502e-13 
        0.11      110    4143.0751   0.37821915 -3.4099219e-14 4.6989055e-13     57.10648     57.10648   -97.937145   -97.937145 -5.7769199e-14 
       0.111      111    4143.0751    0.3770806 8.4031023e-14 6.819646e-13     57.10648     57.10648   -97.937828   -97.937828 -1.1450687e-13 
       0.112      112    4143.0751   0.37591914 3.7442356e-14 7.686242e-13     57.10648     57.10648    -97.93852    -97.93852 -2.2300315e-13 
       0.113      113    4143.0751   0.37476924 -1.3933805e-13 1.2156852e-12     57.10648     57.10648   -97.939201   -97.939201 -3.3678873e-13 
       0.114      114    4143.0751   0.37369274 -1.2389779e-13 1.1885898e-12     57.10648     57.10648    -97.93984    -97.93984 -1.5944157e-13 
       0.115      115    4143.0751   0.37253594 4.1040776e-14 3.9836418e-13     57.10648     57.10648   -97.940533   -97.940533 -4.1195913e-13 
       0.116      116    4143.0751   0.37140216 -1.4972974e-13 -1.7834959e-13     57.10648     57.10648   -97.941212   -97.941212 -2.9310155e-13 
       0.117      117    4143.0751   0.37032885 -1.9697833e-13 -1.3581108e-13     57.10648     57.10648   -97.941851   -97.941851 -3.0978429e-13 
       0.118      118    4143.0751   0.36922777 1.6112515e-13 3.076834e-13     57.10648     57.10648   -97.942503   -97.942503 -3.0708664e-13 
       0.119      119    4143.0751   0.36812557 6.084314e-13 5.7910303e-13     57.10648     57.10648   -97.943159   -97.943159 9.9485385e-14 
        0.12      120    4143.0751   0.36704185 7.9584824e-13 2.6441536e-13     57.10648     57.10648   -97.943808   -97.943808 1.3091678e-13 
       0.121      121    4143.0751   0.36593928 6.3511184e-13 2.9484933e-13     57.10648     57.10648   -97.944468   -97.944468 1.144825e-13 
       0.122      122    4143.0751   0.36484974 7.1215527e-13 5.3893971e-13     57.10648     57.10648   -97.945115   -97.945115 3.4138729e-13 
       0.123      123    4143.0751   0.36383518 7.2160444e-13 4.5377915e-14     57.10648     57.10648   -97.945716   -97.945716 3.7955575e-13 
       0.124      124    4143.0751   0.36275582 4.0145111e-13 1.1955646e-13     57.10648     57.10648   -97.946359   -97.946359 1.8851529e-13 
       0.125      125    4143.0751   0.36166734 3.5990411e-13 5.695626e-13     57.10648     57.10648   -97.947011   -97.947011 1.5694022e-13 
       0.126      126    4143.0751   0.36065192 9.1490436e-13 8.3378501e-13     57.10648     57.10648   -97.947618   -97.947618 9.0780418e-14 
       0.127      127    4143.0751   0.35959841 7.6819877e-13 7.2331762e-13     57.10648     57.10648   -97.948243   -97.948243 3.2318277e-14 
       0.128      128    4143.0751   0.35857258 4.5831945e-13 7.0361165e-13     57.10648     57.10648   -97.948851   -97.948851 -1.731518e-14 
       0.129      129    4143.0751   0.35754701 2.5637902e-13 5.950008e-13     57.10648     57.10648   -97.949464   -97.949464 -1.032274e-13 
        0.13      130    4143.0751   0.35648608 4.3691779e-13 3.2771407e-13     57.10648     57.10648   -97.950099   -97.950099 -3.412428e-14 
       0.131      131    4143.0751   0.35546284 4.9415021e-13 5.2392126e-13     57.10648     57.10648    -97.95071    -97.95071 -1.3888537e-13 
       0.132      132    4143.0751   0.35446794 5.2640492e-13 3.7311669e-13     57.10648     57.10648     -97.9513     -97.9513 -1.2775701e-13 
       0.133      133    4143.0751   0.35344982 3.8926248e-13 8.3556242e-14     57.10648     57.10648   -97.951904   -97.951904 2.6152527e-14 
       0.134      134    4143.0751   0.35242462 3.0688212e-13 -4.1455888e-15     57.10648     57.10648   -97.952517   -97.952517 1.2178396e-13 
       0.135      135    4143.0751   0.35143178 2.1356214e-14 -1.749575e-13     57.10648     57.10648   -97.953111   -97.953111 2.1976855e-13 
       0.136      136    4143.0751   0.35041023 8.6827745e-14 -2.407172e-13     57.10648     57.10648    -97.95372    -97.95372 2.5652917e-13 
       0.137      137    4143.0751   0.34943075 3.2377148e-13 1.881587e-13     57.10648     57.10648   -97.954301   -97.954301 3.2422838e-13 
       0.138      138    4143.0751   0.34846591 7.1121447e-13 5.7230178e-13     57.10648     57.10648   -97.954874   -97.954874 1.6317288e-13 
       0.139      139    4143.0751    0.3474349 6.0620214e-13 8.7853808e-13     57.10648     57.10648   -97.955491   -97.955491 1.1361927e-13 
        0.14      140    4143.0751   0.34645633 1.7098569e-14 7.810216e-13     57.10648     57.10648   -97.956076   -97.956076 1.1785189e-13 
       0.141      141    4143.0751   0.34548205 -3.9284886e-14 7.0741736e-13     57.10648     57.10648   -97.956656   -97.956656 8.0550221e-14 
       0.142      142    4143.0751   0.34448924 -1.0765151e-13 6.5658257e-13     57.10648     57.10648   -97.957245   -97.957245 8.980565e-14 
       0.143      143    4143.0751   0.34352735 -1.5381896e-13 6.9915806e-13     57.10648     57.10648   -97.957817   -97.957817 1.6479504e-13 
       0.144      144    4143.0751   0.34254956 6.3751611e-14 5.2993139e-13     57.10648     57.10648   -97.958403   -97.958403 -1.6903867e-14 
       0.145      145    4143.0751   0.34155572 1.3048688e-13 8.1757851e-13     57.10648     57.10648   -97.958997   -97.958997 -3.311925e-13 
       0.146      146    4143.0751   0.34059978 7.6118341e-14 5.6057419e-13     57.10648     57.10648   -97.959565   -97.959565 -1.4090301e-13 
       0.147      147    4143.0751   0.33966122 1.1081932e-13 5.0030612e-13     57.10648     57.10648   -97.960121   -97.960121 -2.6486663e-13 
       0.148      148    4143.0751   0.33867597 1.616866e-13 5.2600174e-13     57.10648     57.10648   -97.960709   -97.960709 -1.3602541e-13 
       0.149      149    4143.0751   0.33771883 1.8393897e-13 3.4369608e-13     57.10648     57.10648   -97.961282   -97.961282 -2.3657522e-14 
        0.15      150    4143.0751     0.336766 2.2811914e-14 3.6757034e-13     57.10648     57.10648   -97.961851   -97.961851 -2.3040405e-13 
       0.151      151    4143.0751   0.33578976 4.1395612e-13 2.6183171e-13     57.10648     57.10648    -97.96243    -97.96243 -2.7828563e-13 
       0.152      152    4143.0751    0.3348657 5.8192486e-13 2.3629265e-13     57.10648     57.10648   -97.962979   -97.962979 2.4115187e-14 
       0.153      153    4143.0751   0.33390401 6.1629319e-13 2.9773439e-13     57.10648     57.10648   -97.963553   -97.963553 -4.6436673e-14 
       0.154      154    4143.0751   0.33292721 6.4662294e-13 2.4521721e-13     57.10648     57.10648   -97.964137   -97.964137 -6.802037e-14 
       0.155      155    4143.0751   0.33200269 5.0681436e-13 2.8528147e-13     57.10648     57.10648   -97.964688   -97.964688 1.5795824e-13 
       0.156      156    4143.0751   0.33106342 6.1174738e-13 -2.4646422e-14     57.10648     57.10648   -97.965246   -97.965246 1.7713312e-13 
       0.157      157    4143.0751   0.33011228 9.2856011e-13 -2.3701192e-13     57.10648     57.10648   -97.965811   -97.965811 2.5998077e-13 
       0.158      158    4143.0751    0.3291756 1.0613551e-12 -3.5430499e-13     57.10648     57.10648   -97.966371   -97.966371 2.4343813e-13 
       0.159      159    4143.0751   0.32823403 8.6285861e-13 -4.0247071e-13     57.10648     57.10648   -97.966934   -97.966934 2.5773769e-13 
        0.16      160    4143.0751    0.3272824 9.8169511e-13 -2.5860213e-13     57.10648     57.10648   -97.967501   -97.967501 1.7455092e-13 
       0.161      161    4143.0751   0.32637401 1.1289674e-12 -1.2182456e-13     57.10648     57.10648    -97.96804    -97.96804 2.4354773e-13 
       0.162      162    4143.0751   0.32544255 1.2217039e-12 -1.2399381e-13     57.10648     57.10648   -97.968594   -97.968594 -3.9391206e-14 
       0.163      163    4143.0751   0.32448219 1.2676809e-12 -3.9984174e-14     57.10648     57.10648   -97.969168   -97.969168 1.2156193e-13 
       0.164      164    4143.0751   0.32356971 9.4829327e-13 -8.8889155e-14     57.10648     57.10648   -97.969714   -97.969714 9.9418885e-14 
       0.165      165    4143.0751   0.32263226 9.9426925e-13 2.6437145e-14     57.10648     57.10648   -97.970271   -97.970271 1.1152844e-13 
       0.166      166    4143.0751   0.32170678 1.0629062e-12   1.7761e-13     57.10648     57.10648   -97.970821   -97.970821 1.8054495e-13 
       0.167      167    4143.0751    0.3207966 9.3603707e-13 1.2003898e-13     57.10648     57.10648   -97.971363   -97.971363 5.2350134e-14 
       0.168      168    4143.0751   0.31984629 7.4717113e-13 1.335223e-14     57.10648     57.10648   -97.971931   -97.971931 -1.2456685e-13 
       0.169      169    4143.0751   0.31891772 9.7127719e-13 6.8403177e-14     57.10648     57.10648   -97.972486   -97.972486 3.8978604e-14 
        0.17      170    4143.0751   0.31800867 9.5477675e-13 2.9707036e-13     57.10648     57.10648   -97.973026   -97.973026 6.4217395e-14 
       0.171      171    4143.0751    0.3170839  6.29185e-13 4.6299803e-13     57.10648     57.10648   -97.973575   -97.973575 -2.7263135e-14 
       0.172      172    4143.0751    0.3161538 5.4907637e-13 6.5830079e-13     57.10648     57.10648    -97.97413    -97.97413 -2.3901255e-14 
       0.173      173    4143.0751   0.31524139 8.407289e-13 4.1598433e-13     57.10648     57.10648   -97.974675   -97.974675 -9.3567825e-15 
       0.174      174    4143.0751   0.31430852 9.2588576e-13 2.2690995e-13     57.10648     57.10648   -97.975232   -97.975232 -7.4290344e-14 
       0.175      175    4143.0751   0.31338889 6.6563032e-13 5.9039756e-15     57.10648     57.10648   -97.975778   -97.975778 1.7985699e-14 
       0.176      176    4143.0751   0.31249505 4.9055565e-13 1.7764744e-14     57.10648     57.10648   -97.976309   -97.976309 1.076908e-13 
       0.177      177    4143.0751    0.3115553 4.9317878e-13 -2.1325053e-14     57.10648     57.10648    -97.97687    -97.97687 1.454825e-13 
       0.178      178    4143.0751   0.31063869 8.672626e-13 -2.227814e-13     57.10648     57.10648   -97.977418   -97.977418 1.6430523e-13 
       0.179      179    4143.0751    0.3097313 1.1396173e-12 -1.8419753e-13     57.10648     57.10648   -97.977959   -97.977959 1.5759995e-13 
        0.18      180    4143.0751   0.30880487 9.1059103e-13 4.9786781e-14     57.10648     57.10648   -97.978509   -97.978509 3.8839528e-14 
       0.181      181    4143.0751   0.30790726 7.0178775e-13 -1.8659958e-13     57.10648     57.10648   -97.979043   -97.979043 6.7575499e-14 
       0.182      182    4143.0751   0.30698638 5.575165e-13 -2.6224146e-13     57.10648     57.10648   -97.979593   -97.979593 -8.3041319e-14 
       0.183      183    4143.0751   0.30605301 6.9105636e-13 -3.7644842e-13     57.10648     57.10648   -97.980151   -97.980151 1.2784428e-13 
       0.184      184    4143.0751   0.30514582 9.6717566e-13 -1.1858517e-13     57.10648     57.10648   -97.980691   -97.980691 -1.7595973e-13 
       0.185      185    4143.0751   0.30424181 8.1815081e-13 -4.1484276e-13     57.10648     57.10648   -97.981228   -97.981228 9.0389663e-14 
       0.186      186    4143.0751   0.30331791 8.7641662e-13 -7.896053e-13     57.10648     57.10648   -97.981778   -97.981778 6.1964837e-14 
       0.187      187    4143.0751   0.30240533 1.0927714e-12 -6.9609625e-13     57.10648     57.10648   -97.982323   -97.982323 -2.6700559e-14 
       0.188      188    4143.0751   0.30149491 1.3352891e-12 -3.1417597e-13     57.10648     57.10648   -97.982867   -97.982867 1.3168769e-13 
       0.189      189    4143.0751    0.3005691 1.3155112e-12 -3.3446987e-13     57.10648     57.10648   -97.983418   -97.983418 8.5554139e-14 
        0.19      190    4143.0751   0.29968067 1.0379641e-12 -2.7457146e-13     57.10648     57.10648   -97.983946   -97.983946 8.7605786e-14 
       0.191      191    4143.0751   0.29876615 1.0854801e-12 -1.7675113e-14     57.10648     57.10648    -97.98449    -97.98449 1.9655404e-13 
       0.192      192    4143.0751   0.29783592 1.0554172e-12 -3.202496e-13     57.10648     57.10648   -97.985047   -97.985047 1.7700663e-13 
       0.193      193    4143.0751   0.29694148 8.4733176e-13 -4.2519529e-13     57.10648     57.10648    -97.98558    -97.98558 3.1046846e-13 
       0.194      194    4143.0751    0.2960206 2.2097008e-13 -1.2847461e-13     57.10648     57.10648   -97.986128   -97.986128 1.9074279e-13 
       0.195      195    4143.0751   0.29510865 1.4293143e-13 1.2257191e-13     57.10648     57.10648    -97.98667    -97.98667 5.464656e-14 
       0.196      196    4143.0751   0.29420601 5.1651444e-13 9.9970437e-14     57.10648     57.10648   -97.987208   -97.987208 2.9757813e-14 
       0.197      197    4143.0751   0.29328107 5.1923321e-13 -7.2825662e-14     57.10648     57.10648   -97.987761   -97.987761 -1.8221079e-14 
       0.198      198    4143.0751   0.29236412 -1.9324845e-13 -1.6590726e-13     57.10648     57.10648   -97.988308   -97.988308 -1.2035524e-14 
       0.199      199    4143.0751   0.29146353 8.6827014e-14 -6.2607292e-13     57.10648     57.10648   -97.988843   -97.988843 -7.7883549e-14 
         0.2      200    4143.0751    0.2905486 5.3149957e-13 -8.9762883e-13     57.10648     57.10648   -97.989387   -97.989387 -3.9001253e-14 
       0.201      201    4143.0751   0.28962506 5.8606956e-13 -9.2461312e-13     57.10648     57.10648   -97.989938   -97.989938 1.1904302e-14 
       0.202      202    4143.0751   0.28872461 4.1404884e-13 -5.387816e-13     57.10648     57.10648   -97.990476   -97.990476 6.5090117e-14 
       0.203      203    4143.0751   0.28780043 5.1946459e-13 -7.0625137e-14     57.10648     57.10648   -97.991027   -97.991027 2.1875133e-14 
       0.204      204    4143.0751   0.28689321  7.19196e-13 -1.9859551e-13     57.10648     57.10648   -97.991566   -97.991566 -1.3996072e-13 
       0.205      205    4143.0751   0.28600046 4.2571328e-14 -1.4570717e-13     57.10648     57.10648   -97.992097   -97.992097 -8.6866579e-14 
       0.206      206    4143.0751   0.28506635 -3.4189068e-13 -4.4947301e-13     57.10648     57.10648   -97.992655   -97.992655 6.3983043e-15 
       0.207      207    4143.0751   0.28415832 9.8712539e-14 -4.2717075e-13     57.10648     57.10648   -97.993197   -97.993197 -9.8111418e-14 
       0.208      208    4143.0751   0.28325186 6.1341342e-14 -2.8145199e-13     57.10648     57.10648   -97.993737   -97.993737 1.2063412e-13 
       0.209      209    4143.0751   0.28233196 -2.1099854e-13 -2.4982202e-13     57.10648     57.10648   -97.994283   -97.994283 6.8442503e-14 
        0.21      210    4143.0751   0.28142818 -3.9450113e-13 -4.1851468e-13     57.10648     57.10648   -97.994822   -97.994822 4.2129111e-14 
       0.211      211    4143.0751   0.28050958 -1.6363541e-13 -5.6727521e-13     57.10648     57.10648    -97.99537    -97.99537 2.4240057e-13 
       0.212      212    4143.0751   0.27958164 1.5651698e-13 -5.7792177e-13     57.10648     57.10648   -97.995924   -97.995924 7.6392818e-14 
       0.213      213    4143.0751   0.27867407 2.5003294e-13 -6.5508192e-13     57.10648     57.10648   -97.996464   -97.996464 2.8024431e-13 
       0.214      214    4143.0751   0.27777203 3.481775e-13 -3.5195675e-13     57.10648     57.10648      -97.997      -97.997 5.9722071e-14 
       0.215      215    4143.0751   0.27684229 2.5566728e-13 3.4514609e-14     57.10648     57.10648   -97.997555   -97.997555 -1.3663603e-15 
       0.216      216    4143.0751   0.27593025 1.5766206e-13 1.0262295e-13     57.10648     57.10648   -97.998099   -97.998099 7.0220372e-15 
       0.217      217    4143.0751   0.27501739 4.4347187e-13 -2.6241225e-13     57.10648     57.10648   -97.998644   -97.998644 -2.6227401e-14 
       0.218      218    4143.0751   0.27409083 5.0014307e-13 -2.5063556e-13     57.10648     57.10648   -97.999195   -97.999195 -9.7841015e-14 
       0.219      219    4143.0751   0.27319632 4.3332597e-13 -5.8515447e-14     57.10648     57.10648   -97.999727   -97.999727 -7.1486006e-14 
        0.22      220    4143.0751   0.27227187  6.75332e-13 -3.1349325e-13     57.10648     57.10648   -98.000278   -98.000278 -1.8904316e-13 
       0.221      221    4143.0751   0.27134101 8.9614482e-13 -9.6859058e-13     57.10648     57.10648   -98.000834   -98.000834 -1.5746447e-13 
       0.222      222    4143.0751   0.27043521 1.9680487e-13 -8.0120839e-13     57.10648     57.10648   -98.001374   -98.001374 -1.6712379e-13 
       0.223      223    4143.0751   0.26951395 -1.0430607e-13 -5.0925746e-13     57.10648     57.10648   -98.001922   -98.001922 -1.1858742e-13 
       0.224      224    4143.0751   0.26859841 1.3174398e-13 -3.9706788e-13     57.10648     57.10648   -98.002466   -98.002466 -3.3196458e-14 
       0.225      225    4143.0751   0.26768268 5.0452564e-13 -7.2835359e-13     57.10648     57.10648   -98.003013   -98.003013 -6.7062934e-14 
       0.226      226    4143.0751    0.2667537 3.4321247e-13 -7.2434804e-13     57.10648     57.10648   -98.003568   -98.003568 -2.7072333e-14 
       0.227      227    4143.0751    0.2658299 3.5300981e-13 -6.2008792e-13     57.10648     57.10648   -98.004118   -98.004118 1.8410478e-13 
       0.228      228    4143.0751   0.26492517 5.5928733e-13 -7.5462241e-13     57.10648     57.10648   -98.004656   -98.004656 -4.6254366e-14 
       0.229      229    4143.0751   0.26400257 6.2060712e-13 -7.8617441e-13     57.10648     57.10648   -98.005205   -98.005205 1.1608479e-13 
        0.23      230    4143.0751   0.26307358 3.3685972e-13 -6.200017e-13     57.10648     57.10648    -98.00576    -98.00576 3.9961046e-14 
       0.231      231    4143.0751   0.26215994 -6.1226894e-14 -7.0795582e-13     57.10648     57.10648   -98.006305   -98.006305 1.1587017e-13 
       0.232      232    4143.0751   0.26122438 -5.8253975e-14 -5.4042464e-13     57.10648     57.10648   -98.006862   -98.006862 7.4615772e-15 
       0.233      233    4143.0751   0.26031333 4.2996089e-13 -5.2052407e-13     57.10648     57.10648   -98.007404   -98.007404 6.6916379e-15 
       0.234      234    4143.0751   0.25939988 2.1667205e-13 -9.8382065e-13     57.10648     57.10648   -98.007948   -98.007948 7.5906597e-14 
       0.235      235    4143.0751   0.25845596 -1.0977638e-13 -9.7133064e-13     57.10648     57.10648   -98.008512   -98.008512 4.2701252e-14 
       0.236      236    4143.0751   0.25753929 2.9248062e-13 -6.2622104e-13     57.10648     57.10648   -98.009059   -98.009059 -7.3526412e-14 
       0.237      237    4143.0751   0.25661749 1.8844595e-13 -2.0612571e-13     57.10648     57.10648   -98.009607   -98.009607 -2.911531e-15 
       0.238      238    4143.0751   0.25568847 -2.4178628e-13 -2.2927683e-13     57.10648     57.10648   -98.010159   -98.010159 -2.6290812e-14 
       0.239      239    4143.0751   0.25476867 -4.2295073e-13 -7.7631008e-13     57.10648     57.10648   -98.010708   -98.010708 -7.8476026e-14 
        0.24      240    4143.0751   0.25384028 -3.0650692e-13 -1.0008111e-12     57.10648     57.10648   -98.011262   -98.011262 -2.2472864e-13 
       0.241      241    4143.0751   0.25290413 1.2351786e-15 -4.4955872e-13     57.10648     57.10648    -98.01182    -98.01182 5.1890817e-15 
       0.242      242    4143.0751   0.25198593 4.6656923e-14 -5.9658412e-14     57.10648     57.10648   -98.012366   -98.012366 -4.6318981e-14 
       0.243      243    4143.0751   0.25106739 -7.6528495e-14 -9.5504593e-14     57.10648     57.10648   -98.012913   -98.012913 1.3888732e-14 
       0.244      244    4143.0751   0.25012407 -1.1866728e-13 -1.9951228e-13     57.10648     57.10648   -98.013475   -98.013475 -1.5434701e-14 
       0.245      245    4143.0751    0.2492005 -2.5750241e-14 -2.4852847e-14     57.10648     57.10648   -98.014027   -98.014027 8.0805287e-14 
       0.246      246    4143.0751   0.24826755 1.6576438e-13 7.0546368e-14     57.10648     57.10648   -98.014583   -98.014583 7.2444586e-14 
       0.247      247    4143.0751   0.24733414 3.6200845e-13 2.9968369e-16     57.10648     57.10648   -98.015138   -98.015138 -2.033485e-14 
       0.248      248    4143.0751   0.24642085 6.5668199e-13 -1.0781265e-13     57.10648     57.10648   -98.015682   -98.015682 -1.088341e-14 
       0.249      249    4143.0751   0.24547599 6.9521275e-13 -4.9433607e-13     57.10648     57.10648   -98.016245   -98.016245 1.5513498e-13 
        0.25      250    4143.0751   0.24454185 4.3448038e-13 -3.2091044e-13     57.10648     57.10648   -98.016803   -98.016803 4.679492e-14 
       0.251      251    4143.0751   0.24361893 1.4553217e-13 -4.9759086e-13     57.10648     57.10648   -98.017353   -98.017353 1.862136e-14 
       0.252      252    4143.0751   0.24268105 3.8216038e-14 -4.4657593e-13     57.10648     57.10648    -98.01791    -98.01791 -1.2103517e-13 
       0.253      253    4143.0751    0.2417509 -2.3616161e-13 -5.4428842e-13     57.10648     57.10648   -98.018464   -98.018464 6.1032752e-14 
       0.254      254    4143.0751   0.24081939 -3.4449728e-14 -6.506637e-13     57.10648     57.10648    -98.01902    -98.01902 -1.2859827e-13 
       0.255      255    4143.0751   0.23987755 3.1436026e-13 -3.3822074e-13     57.10648     57.10648   -98.019583   -98.019583 -1.0537229e-13 
       0.256      256    4143.0751   0.23894543 6.2089633e-13 -1.1800384e-13     57.10648     57.10648   -98.020137   -98.020137 1.796548e-13 
       0.257      257    4143.0751   0.23802492 3.5189738e-13 -5.8365886e-13     57.10648     57.10648   -98.020685   -98.020685 -6.1133566e-14 
       0.258      258    4143.0751    0.2370772 1.8844173e-13 -5.912474e-13     57.10648     57.10648   -98.021249   -98.021249 -8.6582289e-14 
       0.259      259    4143.0751   0.23613679 5.2891357e-13 -2.9025678e-13     57.10648     57.10648   -98.021811   -98.021811 3.4869509e-16 
        0.26      260    4143.0751   0.23520584 7.1986764e-13 -2.0402945e-13     57.10648     57.10648   -98.022366   -98.022366 -9.4508438e-14 
       0.261      261    4143.0751   0.23425629 4.4366024e-13 -3.8472091e-13     57.10648     57.10648   -98.022931   -98.022931 -3.4602525e-14 
       0.262      262    4143.0751   0.23333283 -1.3583026e-13 -4.9863085e-13     57.10648     57.10648    -98.02348    -98.02348 1.1408325e-13 
       0.263      263    4143.0751   0.23239343 -7.2886978e-13 -6.4681466e-13     57.10648     57.10648    -98.02404    -98.02404 2.3762111e-13 
       0.264      264    4143.0751   0.23144018 -8.4843431e-13 -4.292194e-13     57.10648     57.10648    -98.02461    -98.02461 -2.9741952e-16 
       0.265      265    4143.0751   0.23051085 -8.1554509e-13 7.9066282e-15     57.10648     57.10648   -98.025164   -98.025164 1.3879581e-15 
       0.266      266    4143.0751    0.2295693 -6.1041257e-13 1.5824968e-13     57.10648     57.10648   -98.025724   -98.025724 2.2192227e-14 
       0.267      267    4143.0751   0.22862563 6.2604485e-14 3.4888106e-14     57.10648     57.10648   -98.026285   -98.026285 1.1053336e-13 
       0.268      268    4143.0751     0.227687 1.3715108e-13 1.6872363e-13     57.10648     57.10648   -98.026845   -98.026845 7.3131921e-14 
       0.269      269    4143.0751    0.2267405 -1.6532094e-14 2.5699544e-13     57.10648     57.10648    -98.02741    -98.02741 -4.1398848e-15 
        0.27      270    4143.0751   0.22579216 -3.5739341e-13 1.1187681e-13     57.10648     57.10648   -98.027975   -98.027975 3.3131011e-14 
       0.271      271    4143.0751   0.22486174 -5.1115935e-13 1.7875299e-13     57.10648     57.10648   -98.028529   -98.028529 1.2787829e-13 
       0.272      272    4143.0751   0.22391829 -6.5589381e-13 1.7100747e-14     57.10648     57.10648    -98.02909    -98.02909 -1.0430489e-13 
       0.273      273    4143.0751   0.22296339 -5.5155871e-13 -4.7159469e-13     57.10648     57.10648    -98.02966    -98.02966 -1.2050141e-13 
       0.274      274    4143.0751   0.22203007 -2.0526164e-13 -2.9869605e-13     57.10648     57.10648   -98.030217   -98.030217 9.246333e-14 
       0.275      275    4143.0751   0.22107529 -5.8189829e-14 2.0088706e-13     57.10648     57.10648   -98.030786   -98.030786 7.4528284e-15 
       0.276      276    4143.0751   0.22013065 -1.3976845e-13 -1.6562432e-13     57.10648     57.10648   -98.031347   -98.031347 4.9745885e-14 
       0.277      277    4143.0751   0.21919504 2.8656585e-13 -7.5294491e-14     57.10648     57.10648   -98.031905   -98.031905 3.2612537e-14 
       0.278      278    4143.0751   0.21823176 6.2308586e-13 2.4128074e-13     57.10648     57.10648    -98.03248    -98.03248 1.2551114e-14 
       0.279      279    4143.0751   0.21728569 4.3483831e-13 -6.6816903e-15     57.10648     57.10648   -98.033044   -98.033044 -1.8246004e-14 
        0.28      280    4143.0751   0.21634076 1.6914304e-13 4.593406e-14     57.10648     57.10648   -98.033607   -98.033607 1.5069851e-13 
       0.281      281    4143.0751   0.21538825 3.3825508e-13 6.6538904e-13     57.10648     57.10648   -98.034173   -98.034173  1.76733e-14 
       0.282      282    4143.0751   0.21444358 4.9131253e-13 6.8550361e-13     57.10648     57.10648   -98.034736   -98.034736 -1.6263651e-14 
       0.283      283    4143.0751   0.21349361 2.9821346e-13 -5.7768414e-14     57.10648     57.10648   -98.035303   -98.035303 6.7867268e-14 
       0.284      284    4143.0751   0.21253372 2.6874233e-14 -6.1734901e-13     57.10648     57.10648   -98.035876   -98.035876 -3.4205185e-14 
       0.285      285    4143.0751   0.21158746 2.546807e-13 -4.6202844e-13     57.10648     57.10648   -98.036439   -98.036439 1.4408661e-13 
       0.286      286    4143.0751   0.21064596 4.5405829e-13 -1.4381723e-13     57.10648     57.10648   -98.036999   -98.036999 2.6506278e-15 
       0.287      287    4143.0751   0.20967986 5.4946399e-13 -2.6477508e-13     57.10648     57.10648   -98.037575   -98.037575 1.0405832e-13 
       0.288      288    4143.0751   0.20873112  5.69777e-13 -3.938162e-13     57.10648     57.10648   -98.038141   -98.038141 9.9798567e-14 
       0.289      289    4143.0751   0.20777926 4.5313568e-13 -5.5237355e-13     57.10648     57.10648   -98.038709   -98.038709 -7.5692655e-15 
        0.29      290    4143.0751   0.20681968 6.547688e-13 -4.0775998e-13     57.10648     57.10648   -98.039279   -98.039279 4.8307986e-14 
       0.291      291    4143.0751   0.20588318 2.8311536e-13 -6.1127617e-13     57.10648     57.10648   -98.039837   -98.039837 -1.3826011e-13 
       0.292      292    4143.0751   0.20491949 -4.2369886e-14 -5.4483931e-13     57.10648     57.10648   -98.040412   -98.040412 -5.3054123e-14 
       0.293      293    4143.0751    0.2039545 -2.9636125e-13 2.2473875e-14     57.10648     57.10648   -98.040988   -98.040988 -2.4151753e-15 
       0.294      294    4143.0751   0.20300702 2.0803289e-13 5.5347305e-13     57.10648     57.10648   -98.041552   -98.041552 -3.535214e-14 
       0.295      295    4143.0751   0.20205007 1.2785065e-13 -1.3351502e-13     57.10648     57.10648   -98.042121   -98.042121 -8.650108e-14 
       0.296      296    4143.0751   0.20109477 -2.1739778e-13 -1.8544627e-13     57.10648     57.10648    -98.04269    -98.04269 1.5127641e-13 
       0.297      297    4143.0751   0.20013844 3.9038208e-13 1.2776124e-13     57.10648     57.10648   -98.043261   -98.043261 5.9025138e-14 
       0.298      298    4143.0751   0.19917248 5.0534072e-13 1.4964586e-13     57.10648     57.10648   -98.043837   -98.043837 2.5581248e-13 
       0.299      299    4143.0751   0.19820921 2.8904528e-13 -4.2242268e-13     57.10648     57.10648   -98.044411   -98.044411 1.3091352e-13 
         0.3      300    4143.0751   0.19726316 1.9334049e-13 -7.0963013e-13     57.10648     57.10648   -98.044973   -98.044973 1.440223e-13 
       0.301      301    4143.0751   0.19629937 6.201058e-13 -4.9074706e-13     57.10648     57.10648   -98.045548   -98.045548 1.7994955e-13 
       0.302      302    4143.0751   0.19533458 1.1036153e-12 -1.0449637e-12     57.10648     57.10648   -98.046123   -98.046123 1.4730186e-13 
       0.303      303    4143.0751   0.19438168 1.3647028e-12 -1.6642833e-12     57.10648     57.10648   -98.046692   -98.046692 5.4177628e-14 
       0.304      304    4143.0751   0.19341194 1.4956484e-12 -1.2316115e-12     57.10648     57.10648   -98.047269   -98.047269 8.0994972e-14 
       0.305      305    4143.0751   0.19246241 9.7841464e-13 -8.9741178e-14     57.10648     57.10648   -98.047834   -98.047834 -2.552295e-14 
       0.306      306    4143.0751    0.1915034 5.0602775e-13 -3.2672082e-14     57.10648     57.10648   -98.048405   -98.048405 -2.4085386e-14 
       0.307      307    4143.0751   0.19052637 9.6186094e-13 -3.5193481e-13     57.10648     57.10648   -98.048989   -98.048989 1.2555971e-14 
       0.308      308    4143.0751   0.18956991 1.5694593e-12 -7.1611515e-13     57.10648     57.10648   -98.049559   -98.049559 -3.4516533e-14 
       0.309      309    4143.0751   0.18860731 1.5315119e-12 -3.2349224e-13     57.10648     57.10648   -98.050132   -98.050132 3.0097396e-14 
        0.31      310    4143.0751   0.18764237 1.3362145e-12 2.657073e-13     57.10648     57.10648   -98.050706   -98.050706 1.4760343e-13 
       0.311      311    4143.0751   0.18668236 1.2748272e-12 1.3217918e-13     57.10648     57.10648   -98.051278   -98.051278 1.3723161e-14 
       0.312      312    4143.0751   0.18571517 1.2911668e-12 -3.9303128e-13     57.10648     57.10648   -98.051856   -98.051856 9.7423375e-14 
       0.313      313    4143.0751   0.18474265 1.8204991e-12 -6.326008e-13     57.10648     57.10648   -98.052435   -98.052435 7.4334497e-14 
       0.314      314    4143.0751   0.18378669 2.0704557e-12 -1.8273244e-14     57.10648     57.10648   -98.053004   -98.053004 1.7338792e-13 
       0.315      315    4143.0751   0.18282733 1.9048032e-12 -5.865021e-14     57.10648     57.10648   -98.053575   -98.053575 1.2742164e-13 
       0.316      316    4143.0751   0.18185177 1.4923959e-12 2.4578193e-13     57.10648     57.10648   -98.054157   -98.054157 7.8137905e-14 
       0.317      317    4143.0751   0.18089054 1.0183899e-12 1.0409187e-13     57.10648     57.10648   -98.054731   -98.054731 1.772937e-13 
       0.318      318    4143.0751   0.17991594   9.1328e-13 4.844454e-13     57.10648     57.10648   -98.055311   -98.055311 -6.8186678e-14 
       0.319      319    4143.0751   0.17894918 1.1332306e-12 4.0307145e-13     57.10648     57.10648   -98.055886   -98.055886 8.7189125e-14 
        0.32      320    4143.0751    0.1779928 1.1439616e-12 2.6291412e-13     57.10648     57.10648   -98.056456   -98.056456 1.915746e-13 
       0.321      321    4143.0751   0.17701097 1.5636826e-12 -9.0927459e-14     57.10648     57.10648   -98.057042   -98.057042 -1.0063903e-14 
       0.322      322    4143.0751    0.1760434 2.2386121e-12 -1.2606846e-13     57.10648     57.10648   -98.057619   -98.057619 7.5644335e-14 
       0.323      323    4143.0751   0.17507929 2.1210854e-12 -2.9394453e-13     57.10648     57.10648   -98.058193   -98.058193 -4.7919335e-14 
       0.324      324    4143.0751   0.17410667 1.2447257e-12 -7.405965e-14     57.10648     57.10648   -98.058772   -98.058772 -5.2497496e-14 
       0.325      325    4143.0751   0.17313967 9.2775711e-13 -1.2738822e-13     57.10648     57.10648   -98.059348   -98.059348 1.3562219e-13 
       0.326      326    4143.0751    0.1721678 1.0039444e-12 -4.3374967e-13     57.10648     57.10648   -98.059928   -98.059928 7.2981165e-14 
       0.327      327    4143.0751   0.17118993 8.5938127e-13 -2.4393379e-13     57.10648     57.10648   -98.060511   -98.060511 -1.2447086e-13 
       0.328      328    4143.0751   0.17022183 6.790892e-13 -2.144729e-13     57.10648     57.10648   -98.061087   -98.061087 1.2759117e-13 
       0.329      329    4143.0751   0.16925868 3.7439481e-13 -2.6239292e-13     57.10648     57.10648    -98.06166    -98.06166 2.1847997e-14 
        0.33      330    4143.0751    0.1682762 4.8826743e-13 -1.9462541e-13     57.10648     57.10648   -98.062246   -98.062246 3.1546731e-14 
       0.331      331    4143.0751   0.16730626 6.9149758e-13 6.8770372e-13     57.10648     57.10648   -98.062825   -98.062825 2.0966152e-13 
       0.332      332    4143.0751   0.16633557 8.974137e-13 7.332409e-13     57.10648     57.10648   -98.063403   -98.063403 4.0200351e-15 
       0.333      333    4143.0751   0.16535515 1.0879047e-12 1.1076671e-13     57.10648     57.10648   -98.063987   -98.063987 -1.1413727e-13 
       0.334      334    4143.0751   0.16439378 1.252227e-12 2.7621497e-13     57.10648     57.10648   -98.064559   -98.064559 8.2536477e-14 
       0.335      335    4143.0751   0.16341247 1.3166578e-12 8.5207763e-13     57.10648     57.10648   -98.065144   -98.065144 -1.1364637e-14 
       0.336      336    4143.0751   0.16243196 9.0933243e-13 4.3856086e-13     57.10648     57.10648   -98.065729   -98.065729 2.5001367e-13 
       0.337      337    4143.0751   0.16146669 7.170708e-13 -2.4352374e-13     57.10648     57.10648   -98.066304   -98.066304 7.5409778e-14 
       0.338      338    4143.0751    0.1604901 1.8768429e-13 -2.9914227e-13     57.10648     57.10648   -98.066885   -98.066885 8.8344534e-14 
       0.339      339    4143.0751   0.15951757 1.5821121e-13 -7.7001608e-14     57.10648     57.10648   -98.067464   -98.067464 1.782027e-13 
        0.34      340    4143.0751   0.15854243 4.1746682e-13 8.2486814e-16     57.10648     57.10648   -98.068046   -98.068046 1.5908779e-13 
       0.341      341    4143.0751   0.15755866 1.944626e-13 1.0821147e-13     57.10648     57.10648   -98.068633   -98.068633 4.6372195e-14 
       0.342      342    4143.0751   0.15658016 3.7393994e-13 2.391295e-13     57.10648     57.10648   -98.069216   -98.069216 1.2112248e-14 
       0.343      343    4143.0751     0.155614 8.1472035e-13 -2.2951847e-13     57.10648     57.10648   -98.069791   -98.069791 -1.2847718e-13 
       0.344      344    4143.0751   0.15463337 7.8720329e-13 -1.7853877e-13     57.10648     57.10648   -98.070375   -98.070375 -1.0334695e-13 
       0.345      345    4143.0751   0.15365093 6.5829812e-13 9.3495529e-14     57.10648     57.10648   -98.070961   -98.070961 7.4539521e-14 
       0.346      346    4143.0751   0.15267924 6.9158779e-13 4.8760046e-13     57.10648     57.10648   -98.071541   -98.071541 -1.8887233e-14 
       0.347      347    4143.0751    0.1516948 7.043108e-13 4.5123284e-13     57.10648     57.10648   -98.072127   -98.072127 4.0067539e-14 
       0.348      348    4143.0751     0.150732 1.2982648e-13 1.354646e-13     57.10648     57.10648     -98.0727     -98.0727 -5.5640084e-14 
       0.349      349    4143.0751   0.14977618 3.7593158e-13 -5.3911353e-13     57.10648     57.10648   -98.073269   -98.073269 1.5636605e-13 
        0.35      350    4143.0751   0.14883635 7.8329883e-13 -7.8058051e-13     57.10648     57.10648    -98.07383    -98.07383 1.2516325e-13 
       0.351      351    4143.0751   0.14797208 5.2796455e-13 -6.0750251e-13     57.10648     57.10648   -98.074345   -98.074345  -4.8596e-14 
       0.352      352    4143.0751   0.14719842 4.8539325e-13 -4.729059e-14     57.10648     57.10648   -98.074806   -98.074806 7.2774182e-14 
       0.353      353    4143.0751   0.14656922 5.5888818e-13 4.1389403e-13     57.10648     57.10648    -98.07518    -98.07518 5.210039e-15 
       0.354      354    4143.0751   0.14611001 5.2574239e-13 4.6989776e-14     57.10648     57.10648   -98.075454   -98.075454 1.129298e-13 
       0.355      355    4143.0751   0.14580094 3.8918845e-13 1.3348947e-13     57.10648     57.10648   -98.075639   -98.075639 6.6488273e-14 
       0.356      356    4143.0751   0.14560666 4.1632154e-13 1.8660027e-13     57.10648     57.10648   -98.075755   -98.075755 -1.1876133e-14 
       0.357      357    4143.0751   0.14547521 5.0129128e-13 9.8175545e-14     57.10648     57.10648   -98.075833   -98.075833 1.7619419e-13 
       0.358      358    4143.0751   0.14535404 3.0838151e-13 -1.5399438e-13     57.10648     57.10648   -98.075905   -98.075905 2.7729627e-13 
       0.359      359    4143.0751   0.14517632 5.5963599e-13 -2.8286583e-13     57.10648     57.10648   -98.076011   -98.076011 -1.0597633e-13 
        0.36      360    4143.0751   0.14478768 1.012098e-12 -2.3103087e-13     57.10648     57.10648   -98.076243   -98.076243 -6.3417655e-14 
       0.361      361    4143.0751   0.14361088 2.3167588e-12 -4.943132e-14     57.10648     57.10648   -98.076944   -98.076944 -1.2959287e-14 
       0.362      362    4143.0751   0.13945712 4.7988506e-12 1.6807839e-12     57.10648     57.10648   -98.079418   -98.079418 4.9570643e-14 
       0.363      363    4143.0751   0.12472378 1.4818647e-11 9.3865909e-12     57.10648     57.10648   -98.088194   -98.088194 3.8695314e-13 
       0.364      364    4143.0751  0.083252231 3.7804243e-11 1.9365468e-11     57.10648     57.10648   -98.112905   -98.112905 -1.0062434e-13 
       0.365      365    4143.0751  0.031441398 4.4164266e-11 1.0012852e-12     57.10648     57.10648   -98.143783   -98.143783 1.4288664e-12 
       0.366      366    4143.0751 0.0072163161 3.8041299e-11 -1.2893037e-11     57.10648     57.10648   -98.158219   -98.158219 6.4920721e-13 
       0.367      367    4143.0751 0.0013411629    3.225e-11 -1.2684827e-11     57.10648     57.10648   -98.161718   -98.161718 2.3421308e-13 
       0.368      368    4143.0751 0.00027278868 2.9047827e-11 -1.2056947e-11     57.10648     57.10648   -98.162353   -98.162353 6.9018594e-14 
       0.369      369    4143.0751 8.499099e-05 2.7064922e-11 -1.1048884e-11     57.10648     57.10648   -98.162465   -98.162465 -4.1399448e-14 
        0.37      370    4143.0751 4.8119065e-05 2.532488e-11 -9.7724078e-12     57.10648     57.10648   -98.162487   -98.162487 -9.020509e-14 
       0.371      371    4143.0751 3.4264806e-05 2.3040493e-11 -8.3278608e-12     57.10648     57.10648   -98.162496   -98.162496 4.6088021e-14 
Loop time of 19.7815 on 128 procs for 371 steps with 360800 atoms

94.6% CPU use with 128 MPI tasks x 1 OpenMP threads

Minimization stats:
  Stopping criterion = energy tolerance
  Energy initial, next-to-last, final = 
     -1486645.77951318  -1486647.82549176  -1486647.82549176
  Force two-norm initial, final = 7.1080974 1.6523286e-05
  Force max component initial, final = 0.19826945 1.9470009e-07
  Final line search alpha, max atom move = 1.0000000 1.9470009e-07
  Iterations, force evaluations = 371 742

MPI task timing breakdown:
Section |  min time  |  avg time  |  max time  |%varavg| %total
---------------------------------------------------------------
Pair    | 0.64292    | 2.6846     | 7.249      | 161.2 | 13.57
Neigh   | 0          | 0          | 0          |   0.0 |  0.00
Comm    | 0.025499   | 0.73824    | 2.3743     | 115.7 |  3.73
Output  | 7.5485     | 7.6522     | 7.6975     |   1.6 | 38.68
Modify  | 0          | 0          | 0          |   0.0 |  0.00
Other   |            | 8.706      |            |       | 44.01

Nlocal:        2818.75 ave        9200 max           0 min
Histogram: 88 0 0 0 0 0 0 0 1 39
Nghost:        3899.30 ave       13317 max           0 min
Histogram: 87 1 0 0 0 0 2 0 0 38
Neighs:         0.00000 ave           0 max           0 min
Histogram: 128 0 0 0 0 0 0 0 0 0
FullNghs:      472488.0 ave  1.5456e+06 max           0 min
Histogram: 88 0 0 0 0 0 0 1 0 39

Total # of neighbors = 60478400
Ave neighs/atom = 167.62306
Neighbor list builds = 0
Dangerous builds = 0
Setting up Verlet run ...
  Unit style    : metal
  Current step  : 371
  Time step     : 0.001
4143.075124 57.10648 3.42648060541343e-05
Per MPI rank memory allocation (min/avg/max) = 2.046 | 3.216 | 5.983 Mbytes
Time Step Lx Pxx Pxy Pxz Ly Lz Pyy Pzz Pyz 
           0      371    4143.0751 3.4264806e-05 2.3081944e-11 -8.3026834e-12     57.10648     57.10648   -98.162496   -98.162496 4.8853253e-14 
4143.075124 57.10648 3.42648060541343e-05
       0.001      372    4143.0751 3.4264806e-05 2.3081944e-11 -8.3026834e-12     57.10648     57.10648   -98.162496   -98.162496 4.8853253e-14 
4143.075124 57.10648 3.42648060541343e-05
       0.002      373    4143.0751 3.4264806e-05 2.3081944e-11 -8.3026834e-12     57.10648     57.10648   -98.162496   -98.162496 4.8853253e-14 
4143.075124 57.10648 3.42648060541343e-05
       0.003      374    4143.0751 3.4264806e-05 2.3081944e-11 -8.3026834e-12     57.10648     57.10648   -98.162496   -98.162496 4.8853253e-14 
4143.075124 57.10648 3.42648060541343e-05
       0.004      375    4143.0751 3.4264806e-05 2.3081944e-11 -8.3026834e-12     57.10648     57.10648   -98.162496   -98.162496 4.8853253e-14 
4143.075124 57.10648 3.42648060541343e-05
       0.005      376    4143.0751 3.4264806e-05 2.3081944e-11 -8.3026834e-12     57.10648     57.10648   -98.162496   -98.162496 4.8853253e-14 
4143.075124 57.10648 3.42648060541343e-05
       0.006      377    4143.0751 3.4264806e-05 2.3081944e-11 -8.3026834e-12     57.10648     57.10648   -98.162496   -98.162496 4.8853253e-14 
4143.075124 57.10648 3.42648060541343e-05
       0.007      378    4143.0751 3.4264806e-05 2.3081944e-11 -8.3026834e-12     57.10648     57.10648   -98.162496   -98.162496 4.8853253e-14 
4143.075124 57.10648 3.42648060541343e-05
       0.008      379    4143.0751 3.4264806e-05 2.3081944e-11 -8.3026834e-12     57.10648     57.10648   -98.162496   -98.162496 4.8853253e-14 
4143.26156657551 57.10648 3.42632641725545e-05
       0.009      380    4143.2616 3.4263264e-05 2.3080905e-11 -8.3023098e-12     57.10648     57.10648   -98.158078   -98.158078 4.8851054e-14 
4143.26156657551 57.10648 -33.9883374352155
        0.01      381    4143.2616   -33.988337 2.2924294e-11 -8.4768868e-12     57.10648     57.10648    -118.4205    -118.4205 4.1841307e-14 
4143.26156657551 57.10648 -33.9883374352155
       0.011      382    4143.2616   -33.988337 2.2924294e-11 -8.4768868e-12     57.10648     57.10648    -118.4205    -118.4205 4.1841307e-14 
4143.26156657551 57.10648 -33.9883374352155
       0.012      383    4143.2616   -33.988337 2.2924294e-11 -8.4768868e-12     57.10648     57.10648    -118.4205    -118.4205 4.1841307e-14 
4143.26156657551 57.10648 -33.9883374352155
       0.013      384    4143.2616   -33.988337 2.2924294e-11 -8.4768868e-12     57.10648     57.10648    -118.4205    -118.4205 4.1841307e-14 
4143.26156657551 57.10648 -33.9883374352155
       0.014      385    4143.2616   -33.988337 2.2924294e-11 -8.4768868e-12     57.10648     57.10648    -118.4205    -118.4205 4.1841307e-14 
4143.26156657551 57.10648 -33.9883374352155
       0.015      386    4143.2616   -33.988337 2.2924294e-11 -8.4768868e-12     57.10648     57.10648    -118.4205    -118.4205 4.1841307e-14 
4143.26156657551 57.10648 -33.9883374352155
       0.016      387    4143.2616   -33.988337 2.2924294e-11 -8.4768868e-12     57.10648     57.10648    -118.4205    -118.4205 4.1841307e-14 
4143.26156657551 57.10648 -33.9883374352155
       0.017      388    4143.2616   -33.988337 2.2924294e-11 -8.4768868e-12     57.10648     57.10648    -118.4205    -118.4205 4.1841307e-14 
4143.26156657551 57.10648 -33.9883374352155
       0.018      389    4143.2616   -33.988337 2.2924294e-11 -8.4768868e-12     57.10648     57.10648    -118.4205    -118.4205 4.1841307e-14 
4143.468734833 57.10648 -33.9866380608284
       0.019      390    4143.4687   -33.986638 2.2923147e-11 -8.4764629e-12     57.10648     57.10648   -118.41458   -118.41458 4.1839215e-14 
4143.468734833 57.10648 -71.7595712177382
        0.02      391    4143.4687   -71.759571 2.2972141e-11 -8.3635304e-12     57.10648     57.10648   -140.92684   -140.92684 9.9410711e-14 
4143.468734833 57.10648 -71.7595712177382
       0.021      392    4143.4687   -71.759571 2.2972141e-11 -8.3635304e-12     57.10648     57.10648   -140.92684   -140.92684 9.9410711e-14 
4143.468734833 57.10648 -71.7595712177382
       0.022      393    4143.4687   -71.759571 2.2972141e-11 -8.3635304e-12     57.10648     57.10648   -140.92684   -140.92684 9.9410711e-14 
4143.468734833 57.10648 -71.7595712177382
       0.023      394    4143.4687   -71.759571 2.2972141e-11 -8.3635304e-12     57.10648     57.10648   -140.92684   -140.92684 9.9410711e-14 
4143.468734833 57.10648 -71.7595712177382
       0.024      395    4143.4687   -71.759571 2.2972141e-11 -8.3635304e-12     57.10648     57.10648   -140.92684   -140.92684 9.9410711e-14 
4143.468734833 57.10648 -71.7595712177382
       0.025      396    4143.4687   -71.759571 2.2972141e-11 -8.3635304e-12     57.10648     57.10648   -140.92684   -140.92684 9.9410711e-14 
4143.468734833 57.10648 -71.7595712177382
       0.026      397    4143.4687   -71.759571 2.2972141e-11 -8.3635304e-12     57.10648     57.10648   -140.92684   -140.92684 9.9410711e-14 
4143.468734833 57.10648 -71.7595712177382
       0.027      398    4143.4687   -71.759571 2.2972141e-11 -8.3635304e-12     57.10648     57.10648   -140.92684   -140.92684 9.9410711e-14 
4143.468734833 57.10648 -71.7595712177382
       0.028      399    4143.4687   -71.759571 2.2972141e-11 -8.3635304e-12     57.10648     57.10648   -140.92684   -140.92684 9.9410711e-14 
4143.67591344916 57.10648 -71.7559833288753
       0.029      400    4143.6759   -71.755983 2.2970993e-11 -8.3631122e-12     57.10648     57.10648   -140.91979   -140.91979 9.9405741e-14 
4143.67591344916 57.10648 -109.537516551861
        0.03      401    4143.6759   -109.53752 2.3061394e-11 -8.3291523e-12     57.10648     57.10648   -163.43049   -163.43049 -8.7164505e-14 
4143.67591344916 57.10648 -109.537516551861
       0.031      402    4143.6759   -109.53752 2.3061394e-11 -8.3291523e-12     57.10648     57.10648   -163.43049   -163.43049 -8.7164505e-14 
4143.67591344916 57.10648 -109.537516551861
       0.032      403    4143.6759   -109.53752 2.3061394e-11 -8.3291523e-12     57.10648     57.10648   -163.43049   -163.43049 -8.7164505e-14 
4143.67591344916 57.10648 -109.537516551861
       0.033      404    4143.6759   -109.53752 2.3061394e-11 -8.3291523e-12     57.10648     57.10648   -163.43049   -163.43049 -8.7164505e-14 
4143.67591344916 57.10648 -109.537516551861
       0.034      405    4143.6759   -109.53752 2.3061394e-11 -8.3291523e-12     57.10648     57.10648   -163.43049   -163.43049 -8.7164505e-14 
4143.67591344916 57.10648 -109.537516551861
       0.035      406    4143.6759   -109.53752 2.3061394e-11 -8.3291523e-12     57.10648     57.10648   -163.43049   -163.43049 -8.7164505e-14 
4143.67591344916 57.10648 -109.537516551861
       0.036      407    4143.6759   -109.53752 2.3061394e-11 -8.3291523e-12     57.10648     57.10648   -163.43049   -163.43049 -8.7164505e-14 
4143.67591344916 57.10648 -109.537516551861
       0.037      408    4143.6759   -109.53752 2.3061394e-11 -8.3291523e-12     57.10648     57.10648   -163.43049   -163.43049 -8.7164505e-14 
4143.67591344916 57.10648 -109.537516551861
       0.038      409    4143.6759   -109.53752 2.3061394e-11 -8.3291523e-12     57.10648     57.10648   -163.43049   -163.43049 -8.7164505e-14 
4143.88310242452 57.10648 -109.532039812953
       0.039      410    4143.8831   -109.53204 2.3060241e-11 -8.3287359e-12     57.10648     57.10648   -163.42232   -163.42232 -8.7160147e-14 
4143.88310242452 57.10648 -147.322172924778
        0.04      411    4143.8831   -147.32217 2.3177959e-11 -8.3007571e-12     57.10648     57.10648   -185.93145   -185.93145 -1.0946137e-13 
4143.88310242452 57.10648 -147.322172924778
       0.041      412    4143.8831   -147.32217 2.3177959e-11 -8.3007571e-12     57.10648     57.10648   -185.93145   -185.93145 -1.0946137e-13 
4143.88310242452 57.10648 -147.322172924778
       0.042      413    4143.8831   -147.32217 2.3177959e-11 -8.3007571e-12     57.10648     57.10648   -185.93145   -185.93145 -1.0946137e-13 
4143.88310242452 57.10648 -147.322172924778
       0.043      414    4143.8831   -147.32217 2.3177959e-11 -8.3007571e-12     57.10648     57.10648   -185.93145   -185.93145 -1.0946137e-13 
4143.88310242452 57.10648 -147.322172924778
       0.044      415    4143.8831   -147.32217 2.3177959e-11 -8.3007571e-12     57.10648     57.10648   -185.93145   -185.93145 -1.0946137e-13 
4143.88310242452 57.10648 -147.322172924778
       0.045      416    4143.8831   -147.32217 2.3177959e-11 -8.3007571e-12     57.10648     57.10648   -185.93145   -185.93145 -1.0946137e-13 
4143.88310242452 57.10648 -147.322172924778
       0.046      417    4143.8831   -147.32217 2.3177959e-11 -8.3007571e-12     57.10648     57.10648   -185.93145   -185.93145 -1.0946137e-13 
4143.88310242452 57.10648 -147.322172924778
       0.047      418    4143.8831   -147.32217 2.3177959e-11 -8.3007571e-12     57.10648     57.10648   -185.93145   -185.93145 -1.0946137e-13 
4143.88310242452 57.10648 -147.322172924778
       0.048      419    4143.8831   -147.32217 2.3177959e-11 -8.3007571e-12     57.10648     57.10648   -185.93145   -185.93145 -1.0946137e-13 
4144.09030175958 57.10648 -147.314807000281
       0.049      420    4144.0903   -147.31481  2.31768e-11 -8.3003421e-12     57.10648     57.10648   -185.92215   -185.92215 -1.094559e-13 
4144.09030175958 57.10648 -185.113538327255
        0.05      421    4144.0903   -185.11354 2.3138388e-11 -8.285977e-12     57.10648     57.10648   -208.42971   -208.42971 2.7243974e-14 
4144.09030175958 57.10648 -185.113538327255
       0.051      422    4144.0903   -185.11354 2.3138388e-11 -8.285977e-12     57.10648     57.10648   -208.42971   -208.42971 2.7243974e-14 
4144.09030175958 57.10648 -185.113538327255
       0.052      423    4144.0903   -185.11354 2.3138388e-11 -8.285977e-12     57.10648     57.10648   -208.42971   -208.42971 2.7243974e-14 
4144.09030175958 57.10648 -185.113538327255
       0.053      424    4144.0903   -185.11354 2.3138388e-11 -8.285977e-12     57.10648     57.10648   -208.42971   -208.42971 2.7243974e-14 
4144.09030175958 57.10648 -185.113538327255
       0.054      425    4144.0903   -185.11354 2.3138388e-11 -8.285977e-12     57.10648     57.10648   -208.42971   -208.42971 2.7243974e-14 
4144.09030175958 57.10648 -185.113538327255
       0.055      426    4144.0903   -185.11354 2.3138388e-11 -8.285977e-12     57.10648     57.10648   -208.42971   -208.42971 2.7243974e-14 
4144.09030175958 57.10648 -185.113538327255
       0.056      427    4144.0903   -185.11354 2.3138388e-11 -8.285977e-12     57.10648     57.10648   -208.42971   -208.42971 2.7243974e-14 
4144.09030175958 57.10648 -185.113538327255
       0.057      428    4144.0903   -185.11354 2.3138388e-11 -8.285977e-12     57.10648     57.10648   -208.42971   -208.42971 2.7243974e-14 
4144.09030175958 57.10648 -185.113538327255
       0.058      429    4144.0903   -185.11354 2.3138388e-11 -8.285977e-12     57.10648     57.10648   -208.42971   -208.42971 2.7243974e-14 
4144.29751145486 57.10648 -185.104282881727
       0.059      430    4144.2975   -185.10428 2.3137231e-11 -8.2855628e-12     57.10648     57.10648   -208.41929   -208.41929 2.7242611e-14 
4144.29751145486 57.10648 -222.911612440758
        0.06      431    4144.2975   -222.91161 2.3349696e-11 -8.2208069e-12     57.10648     57.10648   -230.92529   -230.92529 2.1987224e-14 
4144.29751145486 57.10648 -222.911612440758
       0.061      432    4144.2975   -222.91161 2.3349696e-11 -8.2208069e-12     57.10648     57.10648   -230.92529   -230.92529 2.1987224e-14 
4144.29751145486 57.10648 -222.911612440758
       0.062      433    4144.2975   -222.91161 2.3349696e-11 -8.2208069e-12     57.10648     57.10648   -230.92529   -230.92529 2.1987224e-14 
4144.29751145486 57.10648 -222.911612440758
       0.063      434    4144.2975   -222.91161 2.3349696e-11 -8.2208069e-12     57.10648     57.10648   -230.92529   -230.92529 2.1987224e-14 
4144.29751145486 57.10648 -222.911612440758
       0.064      435    4144.2975   -222.91161 2.3349696e-11 -8.2208069e-12     57.10648     57.10648   -230.92529   -230.92529 2.1987224e-14 
4144.29751145486 57.10648 -222.911612440758
       0.065      436    4144.2975   -222.91161 2.3349696e-11 -8.2208069e-12     57.10648     57.10648   -230.92529   -230.92529 2.1987224e-14 
4144.29751145486 57.10648 -222.911612440758
       0.066      437    4144.2975   -222.91161 2.3349696e-11 -8.2208069e-12     57.10648     57.10648   -230.92529   -230.92529 2.1987224e-14 
4144.29751145486 57.10648 -222.911612440758
       0.067      438    4144.2975   -222.91161 2.3349696e-11 -8.2208069e-12     57.10648     57.10648   -230.92529   -230.92529 2.1987224e-14 
4144.29751145486 57.10648 -222.911612440758
       0.068      439    4144.2975   -222.91161 2.3349696e-11 -8.2208069e-12     57.10648     57.10648   -230.92529   -230.92529 2.1987224e-14 
4144.5047315109 57.10648 -222.90046713877
       0.069      440    4144.5047   -222.90047 2.3348528e-11 -8.2203958e-12     57.10648     57.10648   -230.91374   -230.91374 2.1986124e-14 
4144.5047315109 57.10648 -260.716395878278
        0.07      441    4144.5047    -260.7164 2.3146829e-11 -8.3328314e-12     57.10648     57.10648   -253.41817   -253.41817 1.334518e-13 
4144.5047315109 57.10648 -260.716395878278
       0.071      442    4144.5047    -260.7164 2.3146829e-11 -8.3328314e-12     57.10648     57.10648   -253.41817   -253.41817 1.334518e-13 
4144.5047315109 57.10648 -260.716395878278
       0.072      443    4144.5047    -260.7164 2.3146829e-11 -8.3328314e-12     57.10648     57.10648   -253.41817   -253.41817 1.334518e-13 
4144.5047315109 57.10648 -260.716395878278
       0.073      444    4144.5047    -260.7164 2.3146829e-11 -8.3328314e-12     57.10648     57.10648   -253.41817   -253.41817 1.334518e-13 
4144.5047315109 57.10648 -260.716395878278
       0.074      445    4144.5047    -260.7164 2.3146829e-11 -8.3328314e-12     57.10648     57.10648   -253.41817   -253.41817 1.334518e-13 
4144.5047315109 57.10648 -260.716395878278
       0.075      446    4144.5047    -260.7164 2.3146829e-11 -8.3328314e-12     57.10648     57.10648   -253.41817   -253.41817 1.334518e-13 
4144.5047315109 57.10648 -260.716395878278
       0.076      447    4144.5047    -260.7164 2.3146829e-11 -8.3328314e-12     57.10648     57.10648   -253.41817   -253.41817 1.334518e-13 
4144.5047315109 57.10648 -260.716395878278
       0.077      448    4144.5047    -260.7164 2.3146829e-11 -8.3328314e-12     57.10648     57.10648   -253.41817   -253.41817 1.334518e-13 
4144.5047315109 57.10648 -260.716395878278
       0.078      449    4144.5047    -260.7164 2.3146829e-11 -8.3328314e-12     57.10648     57.10648   -253.41817   -253.41817 1.334518e-13 
4144.71196192819 57.10648 -260.703360384374
       0.079      450     4144.712   -260.70336 2.3145672e-11 -8.3324147e-12     57.10648     57.10648    -253.4055    -253.4055 1.3344513e-13 
4144.71196192819 57.10648 -298.527885905364
        0.08      451     4144.712   -298.52789 2.3395051e-11 -8.3288862e-12     57.10648     57.10648   -275.90837   -275.90837 -1.0835694e-13 
4144.71196192819 57.10648 -298.527885905364
       0.081      452     4144.712   -298.52789 2.3395051e-11 -8.3288862e-12     57.10648     57.10648   -275.90837   -275.90837 -1.0835694e-13 
4144.71196192819 57.10648 -298.527885905364
       0.082      453     4144.712   -298.52789 2.3395051e-11 -8.3288862e-12     57.10648     57.10648   -275.90837   -275.90837 -1.0835694e-13 
4144.71196192819 57.10648 -298.527885905364
       0.083      454     4144.712   -298.52789 2.3395051e-11 -8.3288862e-12     57.10648     57.10648   -275.90837   -275.90837 -1.0835694e-13 
4144.71196192819 57.10648 -298.527885905364
       0.084      455     4144.712   -298.52789 2.3395051e-11 -8.3288862e-12     57.10648     57.10648   -275.90837   -275.90837 -1.0835694e-13 
4144.71196192819 57.10648 -298.527885905364
       0.085      456     4144.712   -298.52789 2.3395051e-11 -8.3288862e-12     57.10648     57.10648   -275.90837   -275.90837 -1.0835694e-13 
4144.71196192819 57.10648 -298.527885905364
       0.086      457     4144.712   -298.52789 2.3395051e-11 -8.3288862e-12     57.10648     57.10648   -275.90837   -275.90837 -1.0835694e-13 
4144.71196192819 57.10648 -298.527885905364
       0.087      458     4144.712   -298.52789 2.3395051e-11 -8.3288862e-12     57.10648     57.10648   -275.90837   -275.90837 -1.0835694e-13 
4144.71196192819 57.10648 -298.527885905364
       0.088      459     4144.712   -298.52789 2.3395051e-11 -8.3288862e-12     57.10648     57.10648   -275.90837   -275.90837 -1.0835694e-13 
4144.91920270726 57.10648 -298.512959884222
       0.089      460    4144.9192   -298.51296 2.3393881e-11 -8.3284698e-12     57.10648     57.10648   -275.89457   -275.89457 -1.0835152e-13 
4144.91920270726 57.10648 -336.346081400915
        0.09      461    4144.9192   -336.34608 2.3133664e-11 -8.267824e-12     57.10648     57.10648   -298.39587   -298.39587 -6.824033e-14 
4144.91920270726 57.10648 -336.346081400915
       0.091      462    4144.9192   -336.34608 2.3133664e-11 -8.267824e-12     57.10648     57.10648   -298.39587   -298.39587 -6.824033e-14 
4144.91920270726 57.10648 -336.346081400915
       0.092      463    4144.9192   -336.34608 2.3133664e-11 -8.267824e-12     57.10648     57.10648   -298.39587   -298.39587 -6.824033e-14 
4144.91920270726 57.10648 -336.346081400915
       0.093      464    4144.9192   -336.34608 2.3133664e-11 -8.267824e-12     57.10648     57.10648   -298.39587   -298.39587 -6.824033e-14 
4144.91920270726 57.10648 -336.346081400915
       0.094      465    4144.9192   -336.34608 2.3133664e-11 -8.267824e-12     57.10648     57.10648   -298.39587   -298.39587 -6.824033e-14 
4144.91920270726 57.10648 -336.346081400915
       0.095      466    4144.9192   -336.34608 2.3133664e-11 -8.267824e-12     57.10648     57.10648   -298.39587   -298.39587 -6.824033e-14 
4144.91920270726 57.10648 -336.346081400915
       0.096      467    4144.9192   -336.34608 2.3133664e-11 -8.267824e-12     57.10648     57.10648   -298.39587   -298.39587 -6.824033e-14 
4144.91920270726 57.10648 -336.346081400915
       0.097      468    4144.9192   -336.34608 2.3133664e-11 -8.267824e-12     57.10648     57.10648   -298.39587   -298.39587 -6.824033e-14 
4144.91920270726 57.10648 -336.346081400915
       0.098      469    4144.9192   -336.34608 2.3133664e-11 -8.267824e-12     57.10648     57.10648   -298.39587   -298.39587 -6.824033e-14 
4145.12645384863 57.10648 -336.329264517271
       0.099      470    4145.1265   -336.32926 2.3132507e-11 -8.2674106e-12     57.10648     57.10648   -298.38095   -298.38095 -6.8236918e-14 
4145.12645384863 57.10648 -374.170981763605
         0.1      471    4145.1265   -374.17098 2.3111974e-11 -8.2990101e-12     57.10648     57.10648   -320.88068   -320.88068 3.252644e-14 
4145.12645384863 57.10648 -374.170981763605
       0.101      472    4145.1265   -374.17098 2.3111974e-11 -8.2990101e-12     57.10648     57.10648   -320.88068   -320.88068 3.252644e-14 
4145.12645384863 57.10648 -374.170981763605
       0.102      473    4145.1265   -374.17098 2.3111974e-11 -8.2990101e-12     57.10648     57.10648   -320.88068   -320.88068 3.252644e-14 
4145.12645384863 57.10648 -374.170981763605
       0.103      474    4145.1265   -374.17098 2.3111974e-11 -8.2990101e-12     57.10648     57.10648   -320.88068   -320.88068 3.252644e-14 
4145.12645384863 57.10648 -374.170981763605
       0.104      475    4145.1265   -374.17098 2.3111974e-11 -8.2990101e-12     57.10648     57.10648   -320.88068   -320.88068 3.252644e-14 
4145.12645384863 57.10648 -374.170981763605
       0.105      476    4145.1265   -374.17098 2.3111974e-11 -8.2990101e-12     57.10648     57.10648   -320.88068   -320.88068 3.252644e-14 
4145.12645384863 57.10648 -374.170981763605
       0.106      477    4145.1265   -374.17098 2.3111974e-11 -8.2990101e-12     57.10648     57.10648   -320.88068   -320.88068 3.252644e-14 
4145.12645384863 57.10648 -374.170981763605
       0.107      478    4145.1265   -374.17098 2.3111974e-11 -8.2990101e-12     57.10648     57.10648   -320.88068   -320.88068 3.252644e-14 
4145.12645384863 57.10648 -374.170981763605
       0.108      479    4145.1265   -374.17098 2.3111974e-11 -8.2990101e-12     57.10648     57.10648   -320.88068   -320.88068 3.252644e-14 
4145.33371535282 57.10648 -374.152273682222
       0.109      480    4145.3337   -374.15227 2.3110818e-11 -8.2985952e-12     57.10648     57.10648   -320.86464   -320.86464 3.2524814e-14 
4145.33371535282 57.10648 -412.002586109713
        0.11      481    4145.3337   -412.00259 2.3305246e-11 -8.3272746e-12     57.10648     57.10648    -343.3628    -343.3628 6.1273783e-14 
4145.33371535282 57.10648 -412.002586109713
       0.111      482    4145.3337   -412.00259 2.3305246e-11 -8.3272746e-12     57.10648     57.10648    -343.3628    -343.3628 6.1273783e-14 
4145.33371535282 57.10648 -412.002586109713
       0.112      483    4145.3337   -412.00259 2.3305246e-11 -8.3272746e-12     57.10648     57.10648    -343.3628    -343.3628 6.1273783e-14 
4145.33371535282 57.10648 -412.002586109713
       0.113      484    4145.3337   -412.00259 2.3305246e-11 -8.3272746e-12     57.10648     57.10648    -343.3628    -343.3628 6.1273783e-14 
4145.33371535282 57.10648 -412.002586109713
       0.114      485    4145.3337   -412.00259 2.3305246e-11 -8.3272746e-12     57.10648     57.10648    -343.3628    -343.3628 6.1273783e-14 
4145.33371535282 57.10648 -412.002586109713
       0.115      486    4145.3337   -412.00259 2.3305246e-11 -8.3272746e-12     57.10648     57.10648    -343.3628    -343.3628 6.1273783e-14 
4145.33371535282 57.10648 -412.002586109713
       0.116      487    4145.3337   -412.00259 2.3305246e-11 -8.3272746e-12     57.10648     57.10648    -343.3628    -343.3628 6.1273783e-14 
4145.33371535282 57.10648 -412.002586109713
       0.117      488    4145.3337   -412.00259 2.3305246e-11 -8.3272746e-12     57.10648     57.10648    -343.3628    -343.3628 6.1273783e-14 
4145.33371535282 57.10648 -412.002586109713
       0.118      489    4145.3337   -412.00259 2.3305246e-11 -8.3272746e-12     57.10648     57.10648    -343.3628    -343.3628 6.1273783e-14 
4145.54098722034 57.10648 -411.981986495402
       0.119      490     4145.541   -411.98199 2.3304081e-11 -8.3268582e-12     57.10648     57.10648   -343.34563   -343.34563 6.1270719e-14 
4145.54098722034 57.10648 -449.840896303932
        0.12      491     4145.541    -449.8409 2.3172703e-11 -8.2851028e-12     57.10648     57.10648   -365.84223   -365.84223 2.3339592e-15 
4145.54098722034 57.10648 -449.840896303932
       0.121      492     4145.541    -449.8409 2.3172703e-11 -8.2851028e-12     57.10648     57.10648   -365.84223   -365.84223 2.3339592e-15 
4145.54098722034 57.10648 -449.840896303932
       0.122      493     4145.541    -449.8409 2.3172703e-11 -8.2851028e-12     57.10648     57.10648   -365.84223   -365.84223 2.3339592e-15 
4145.54098722034 57.10648 -449.840896303932
       0.123      494     4145.541    -449.8409 2.3172703e-11 -8.2851028e-12     57.10648     57.10648   -365.84223   -365.84223 2.3339592e-15 
4145.54098722034 57.10648 -449.840896303932
[...]
4161.74016493459 57.10648 -3421.95900637988
       0.901     1272    4161.7402    -3421.959 2.3248423e-11 -8.157637e-12     57.10648     57.10648   -2110.9709   -2110.9709 4.9160258e-14 
4161.74016493459 57.10648 -3421.95900637988
       0.902     1273    4161.7402    -3421.959 2.3248423e-11 -8.157637e-12     57.10648     57.10648   -2110.9709   -2110.9709 4.9160258e-14 
4161.74016493459 57.10648 -3421.95900637988
       0.903     1274    4161.7402    -3421.959 2.3248423e-11 -8.157637e-12     57.10648     57.10648   -2110.9709   -2110.9709 4.9160258e-14 
4161.74016493459 57.10648 -3421.95900637988
       0.904     1275    4161.7402    -3421.959 2.3248423e-11 -8.157637e-12     57.10648     57.10648   -2110.9709   -2110.9709 4.9160258e-14 
4161.74016493459 57.10648 -3421.95900637988
       0.905     1276    4161.7402    -3421.959 2.3248423e-11 -8.157637e-12     57.10648     57.10648   -2110.9709   -2110.9709 4.9160258e-14 
4161.74016493459 57.10648 -3421.95900637988
       0.906     1277    4161.7402    -3421.959 2.3248423e-11 -8.157637e-12     57.10648     57.10648   -2110.9709   -2110.9709 4.9160258e-14 
4161.74016493459 57.10648 -3421.95900637988
       0.907     1278    4161.7402    -3421.959 2.3248423e-11 -8.157637e-12     57.10648     57.10648   -2110.9709   -2110.9709 4.9160258e-14 
4161.74016493459 57.10648 -3421.95900637988
       0.908     1279    4161.7402    -3421.959 2.3248423e-11 -8.157637e-12     57.10648     57.10648   -2110.9709   -2110.9709 4.9160258e-14 
4161.9482571451 57.10648 -3421.78791270694
       0.909     1280    4161.9483   -3421.7879 2.3247261e-11 -8.1572291e-12     57.10648     57.10648   -2110.8654   -2110.8654  4.91578e-14 
4161.9482571451 57.10648 -3460.32912827559
        0.91     1281    4161.9483   -3460.3291 2.3094812e-11 -8.2169704e-12     57.10648     57.10648   -2133.2383   -2133.2383 -2.0596347e-14 
4161.9482571451 57.10648 -3460.32912827559
       0.911     1282    4161.9483   -3460.3291 2.3094812e-11 -8.2169704e-12     57.10648     57.10648   -2133.2383   -2133.2383 -2.0596347e-14 
4161.9482571451 57.10648 -3460.32912827559
       0.912     1283    4161.9483   -3460.3291 2.3094812e-11 -8.2169704e-12     57.10648     57.10648   -2133.2383   -2133.2383 -2.0596347e-14 
4161.9482571451 57.10648 -3460.32912827559
       0.913     1284    4161.9483   -3460.3291 2.3094812e-11 -8.2169704e-12     57.10648     57.10648   -2133.2383   -2133.2383 -2.0596347e-14 
4161.9482571451 57.10648 -3460.32912827559
       0.914     1285    4161.9483   -3460.3291 2.3094812e-11 -8.2169704e-12     57.10648     57.10648   -2133.2383   -2133.2383 -2.0596347e-14 
4161.9482571451 57.10648 -3460.32912827559
       0.915     1286    4161.9483   -3460.3291 2.3094812e-11 -8.2169704e-12     57.10648     57.10648   -2133.2383   -2133.2383 -2.0596347e-14 
4161.9482571451 57.10648 -3460.32912827559
       0.916     1287    4161.9483   -3460.3291 2.3094812e-11 -8.2169704e-12     57.10648     57.10648   -2133.2383   -2133.2383 -2.0596347e-14 
4161.9482571451 57.10648 -3460.32912827559
       0.917     1288    4161.9483   -3460.3291 2.3094812e-11 -8.2169704e-12     57.10648     57.10648   -2133.2383   -2133.2383 -2.0596347e-14 
4161.9482571451 57.10648 -3460.32912827559
       0.918     1289    4161.9483   -3460.3291 2.3094812e-11 -8.2169704e-12     57.10648     57.10648   -2133.2383   -2133.2383 -2.0596347e-14 
4162.15635976048 57.10648 -3460.15611614452
       0.919     1290    4162.1564   -3460.1561 2.3093657e-11 -8.2165596e-12     57.10648     57.10648   -2133.1317   -2133.1317 -2.0595318e-14 
4162.15635976048 57.10648 -3498.70598270628
        0.92     1291    4162.1564    -3498.706 2.317592e-11 -8.1698871e-12     57.10648     57.10648    -2155.503    -2155.503 5.3179651e-14 
4162.15635976048 57.10648 -3498.70598270628
       0.921     1292    4162.1564    -3498.706 2.317592e-11 -8.1698871e-12     57.10648     57.10648    -2155.503    -2155.503 5.3179651e-14 
4162.15635976048 57.10648 -3498.70598270628
       0.922     1293    4162.1564    -3498.706 2.317592e-11 -8.1698871e-12     57.10648     57.10648    -2155.503    -2155.503 5.3179651e-14 
4162.15635976048 57.10648 -3498.70598270628
       0.923     1294    4162.1564    -3498.706 2.317592e-11 -8.1698871e-12     57.10648     57.10648    -2155.503    -2155.503 5.3179651e-14 
4162.15635976048 57.10648 -3498.70598270628
       0.924     1295    4162.1564    -3498.706 2.317592e-11 -8.1698871e-12     57.10648     57.10648    -2155.503    -2155.503 5.3179651e-14 
4162.15635976048 57.10648 -3498.70598270628
       0.925     1296    4162.1564    -3498.706 2.317592e-11 -8.1698871e-12     57.10648     57.10648    -2155.503    -2155.503 5.3179651e-14 
4162.15635976048 57.10648 -3498.70598270628
       0.926     1297    4162.1564    -3498.706 2.317592e-11 -8.1698871e-12     57.10648     57.10648    -2155.503    -2155.503 5.3179651e-14 
4162.15635976048 57.10648 -3498.70598270628
       0.927     1298    4162.1564    -3498.706 2.317592e-11 -8.1698871e-12     57.10648     57.10648    -2155.503    -2155.503 5.3179651e-14 
4162.15635976048 57.10648 -3498.70598270628
       0.928     1299    4162.1564    -3498.706 2.317592e-11 -8.1698871e-12     57.10648     57.10648    -2155.503    -2155.503 5.3179651e-14 
4162.36447278125 57.10648 -3498.53105178046
       0.929     1300    4162.3645   -3498.5311 2.3174761e-11 -8.1694786e-12     57.10648     57.10648   -2155.3952   -2155.3952 5.3176992e-14 
4162.36447278125 57.10648 -3537.08957534325
        0.93     1301    4162.3645   -3537.0896 2.3168767e-11 -8.3177861e-12     57.10648     57.10648    -2177.765    -2177.765 -1.0323239e-14 
4162.36447278125 57.10648 -3537.08957534325
       0.931     1302    4162.3645   -3537.0896 2.3168767e-11 -8.3177861e-12     57.10648     57.10648    -2177.765    -2177.765 -1.0323239e-14 
4162.36447278125 57.10648 -3537.08957534325
       0.932     1303    4162.3645   -3537.0896 2.3168767e-11 -8.3177861e-12     57.10648     57.10648    -2177.765    -2177.765 -1.0323239e-14 
4162.36447278125 57.10648 -3537.08957534325
       0.933     1304    4162.3645   -3537.0896 2.3168767e-11 -8.3177861e-12     57.10648     57.10648    -2177.765    -2177.765 -1.0323239e-14 
4162.36447278125 57.10648 -3537.08957534325
       0.934     1305    4162.3645   -3537.0896 2.3168767e-11 -8.3177861e-12     57.10648     57.10648    -2177.765    -2177.765 -1.0323239e-14 
4162.36447278125 57.10648 -3537.08957534325
       0.935     1306    4162.3645   -3537.0896 2.3168767e-11 -8.3177861e-12     57.10648     57.10648    -2177.765    -2177.765 -1.0323239e-14 
4162.36447278125 57.10648 -3537.08957534325
       0.936     1307    4162.3645   -3537.0896 2.3168767e-11 -8.3177861e-12     57.10648     57.10648    -2177.765    -2177.765 -1.0323239e-14 
4162.36447278125 57.10648 -3537.08957534325
       0.937     1308    4162.3645   -3537.0896 2.3168767e-11 -8.3177861e-12     57.10648     57.10648    -2177.765    -2177.765 -1.0323239e-14 
4162.36447278125 57.10648 -3537.08957534325
       0.938     1309    4162.3645   -3537.0896 2.3168767e-11 -8.3177861e-12     57.10648     57.10648    -2177.765    -2177.765 -1.0323239e-14 
4162.57259620793 57.10648 -3536.91272528577
       0.939     1310    4162.5726   -3536.9127 2.3167609e-11 -8.3173702e-12     57.10648     57.10648   -2177.6561   -2177.6561 -1.0322723e-14 
4162.57259620793 57.10648 -3575.47990541849
        0.94     1311    4162.5726   -3575.4799 2.3113346e-11 -8.0968197e-12     57.10648     57.10648   -2200.0243   -2200.0243 6.8915445e-14 
4162.57259620793 57.10648 -3575.47990541849
       0.941     1312    4162.5726   -3575.4799 2.3113346e-11 -8.0968197e-12     57.10648     57.10648   -2200.0243   -2200.0243 6.8915445e-14 
4162.57259620793 57.10648 -3575.47990541849
       0.942     1313    4162.5726   -3575.4799 2.3113346e-11 -8.0968197e-12     57.10648     57.10648   -2200.0243   -2200.0243 6.8915445e-14 
4162.57259620793 57.10648 -3575.47990541849
       0.943     1314    4162.5726   -3575.4799 2.3113346e-11 -8.0968197e-12     57.10648     57.10648   -2200.0243   -2200.0243 6.8915445e-14 
4162.57259620793 57.10648 -3575.47990541849
       0.944     1315    4162.5726   -3575.4799 2.3113346e-11 -8.0968197e-12     57.10648     57.10648   -2200.0243   -2200.0243 6.8915445e-14 
4162.57259620793 57.10648 -3575.47990541849
       0.945     1316    4162.5726   -3575.4799 2.3113346e-11 -8.0968197e-12     57.10648     57.10648   -2200.0243   -2200.0243 6.8915445e-14 
4162.57259620793 57.10648 -3575.47990541849
       0.946     1317    4162.5726   -3575.4799 2.3113346e-11 -8.0968197e-12     57.10648     57.10648   -2200.0243   -2200.0243 6.8915445e-14 
4162.57259620793 57.10648 -3575.47990541849
       0.947     1318    4162.5726   -3575.4799 2.3113346e-11 -8.0968197e-12     57.10648     57.10648   -2200.0243   -2200.0243 6.8915445e-14 
4162.57259620793 57.10648 -3575.47990541849
       0.948     1319    4162.5726   -3575.4799 2.3113346e-11 -8.0968197e-12     57.10648     57.10648   -2200.0243   -2200.0243 6.8915445e-14 
4162.78073004104 57.10648 -3575.30113589249
       0.949     1320    4162.7807   -3575.3011 2.311219e-11 -8.0964149e-12     57.10648     57.10648   -2199.9143   -2199.9143 6.8911999e-14 
4162.78073004104 57.10648 -3613.87697263541
        0.95     1321    4162.7807    -3613.877 2.3199504e-11 -8.110779e-12     57.10648     57.10648   -2222.2809   -2222.2809 1.9211882e-14 
4162.78073004104 57.10648 -3613.87697263541
       0.951     1322    4162.7807    -3613.877 2.3199504e-11 -8.110779e-12     57.10648     57.10648   -2222.2809   -2222.2809 1.9211882e-14 
4162.78073004104 57.10648 -3613.87697263541
       0.952     1323    4162.7807    -3613.877 2.3199504e-11 -8.110779e-12     57.10648     57.10648   -2222.2809   -2222.2809 1.9211882e-14 
4162.78073004104 57.10648 -3613.87697263541
       0.953     1324    4162.7807    -3613.877 2.3199504e-11 -8.110779e-12     57.10648     57.10648   -2222.2809   -2222.2809 1.9211882e-14 
4162.78073004104 57.10648 -3613.87697263541
       0.954     1325    4162.7807    -3613.877 2.3199504e-11 -8.110779e-12     57.10648     57.10648   -2222.2809   -2222.2809 1.9211882e-14 
4162.78073004104 57.10648 -3613.87697263541
       0.955     1326    4162.7807    -3613.877 2.3199504e-11 -8.110779e-12     57.10648     57.10648   -2222.2809   -2222.2809 1.9211882e-14 
4162.78073004104 57.10648 -3613.87697263541
       0.956     1327    4162.7807    -3613.877 2.3199504e-11 -8.110779e-12     57.10648     57.10648   -2222.2809   -2222.2809 1.9211882e-14 
4162.78073004104 57.10648 -3613.87697263541
       0.957     1328    4162.7807    -3613.877 2.3199504e-11 -8.110779e-12     57.10648     57.10648   -2222.2809   -2222.2809 1.9211882e-14 
4162.78073004104 57.10648 -3613.87697263541
       0.958     1329    4162.7807    -3613.877 2.3199504e-11 -8.110779e-12     57.10648     57.10648   -2222.2809   -2222.2809 1.9211882e-14 
4162.98887428111 57.10648 -3613.69628330405
       0.959     1330    4162.9889   -3613.6963 2.3198344e-11 -8.1103734e-12     57.10648     57.10648   -2222.1698   -2222.1698 1.9210921e-14 
4162.98887428111 57.10648 -3652.28077595198
        0.96     1331    4162.9889   -3652.2808 2.3119548e-11 -8.3162295e-12     57.10648     57.10648   -2244.5348   -2244.5348 -1.7918733e-14 
4162.98887428111 57.10648 -3652.28077595198
       0.961     1332    4162.9889   -3652.2808 2.3119548e-11 -8.3162295e-12     57.10648     57.10648   -2244.5348   -2244.5348 -1.7918733e-14 
4162.98887428111 57.10648 -3652.28077595198
       0.962     1333    4162.9889   -3652.2808 2.3119548e-11 -8.3162295e-12     57.10648     57.10648   -2244.5348   -2244.5348 -1.7918733e-14 
4162.98887428111 57.10648 -3652.28077595198
       0.963     1334    4162.9889   -3652.2808 2.3119548e-11 -8.3162295e-12     57.10648     57.10648   -2244.5348   -2244.5348 -1.7918733e-14 
4162.98887428111 57.10648 -3652.28077595198
       0.964     1335    4162.9889   -3652.2808 2.3119548e-11 -8.3162295e-12     57.10648     57.10648   -2244.5348   -2244.5348 -1.7918733e-14 
4162.98887428111 57.10648 -3652.28077595198
       0.965     1336    4162.9889   -3652.2808 2.3119548e-11 -8.3162295e-12     57.10648     57.10648   -2244.5348   -2244.5348 -1.7918733e-14 
4162.98887428111 57.10648 -3652.28077595198
       0.966     1337    4162.9889   -3652.2808 2.3119548e-11 -8.3162295e-12     57.10648     57.10648   -2244.5348   -2244.5348 -1.7918733e-14 
4162.98887428111 57.10648 -3652.28077595198
       0.967     1338    4162.9889   -3652.2808 2.3119548e-11 -8.3162295e-12     57.10648     57.10648   -2244.5348   -2244.5348 -1.7918733e-14 
4162.98887428111 57.10648 -3652.28077595198
       0.968     1339    4162.9889   -3652.2808 2.3119548e-11 -8.3162295e-12     57.10648     57.10648   -2244.5348   -2244.5348 -1.7918733e-14 
4163.19702892864 57.10648 -3652.09816647845
       0.969     1340     4163.197   -3652.0982 2.3118392e-11 -8.3158137e-12     57.10648     57.10648   -2244.4226   -2244.4226 -1.7917837e-14 
4163.19702892864 57.10648 -3690.69131234996
        0.97     1341     4163.197   -3690.6913 2.3062262e-11 -8.2036116e-12     57.10648     57.10648    -2266.786    -2266.786 -3.5129551e-14 
4163.19702892864 57.10648 -3690.69131234996
       0.971     1342     4163.197   -3690.6913 2.3062262e-11 -8.2036116e-12     57.10648     57.10648    -2266.786    -2266.786 -3.5129551e-14 
4163.19702892864 57.10648 -3690.69131234996
       0.972     1343     4163.197   -3690.6913 2.3062262e-11 -8.2036116e-12     57.10648     57.10648    -2266.786    -2266.786 -3.5129551e-14 
4163.19702892864 57.10648 -3690.69131234996
       0.973     1344     4163.197   -3690.6913 2.3062262e-11 -8.2036116e-12     57.10648     57.10648    -2266.786    -2266.786 -3.5129551e-14 
4163.19702892864 57.10648 -3690.69131234996
       0.974     1345     4163.197   -3690.6913 2.3062262e-11 -8.2036116e-12     57.10648     57.10648    -2266.786    -2266.786 -3.5129551e-14 
4163.19702892864 57.10648 -3690.69131234996
       0.975     1346     4163.197   -3690.6913 2.3062262e-11 -8.2036116e-12     57.10648     57.10648    -2266.786    -2266.786 -3.5129551e-14 
4163.19702892864 57.10648 -3690.69131234996
       0.976     1347     4163.197   -3690.6913 2.3062262e-11 -8.2036116e-12     57.10648     57.10648    -2266.786    -2266.786 -3.5129551e-14 
4163.19702892864 57.10648 -3690.69131234996
       0.977     1348     4163.197   -3690.6913 2.3062262e-11 -8.2036116e-12     57.10648     57.10648    -2266.786    -2266.786 -3.5129551e-14 
4163.19702892864 57.10648 -3690.69131234996
       0.978     1349     4163.197   -3690.6913 2.3062262e-11 -8.2036116e-12     57.10648     57.10648    -2266.786    -2266.786 -3.5129551e-14 
4163.40519398417 57.10648 -3690.50678239763
       0.979     1350    4163.4052   -3690.5068 2.3061109e-11 -8.2032015e-12     57.10648     57.10648   -2266.6726   -2266.6726 -3.5127795e-14 
4163.40519398417 57.10648 -3729.10858042996
        0.98     1351    4163.4052   -3729.1086 2.3104011e-11 -8.3065775e-12     57.10648     57.10648   -2289.0345   -2289.0345 -1.4117406e-13 
4163.40519398417 57.10648 -3729.10858042996
       0.981     1352    4163.4052   -3729.1086 2.3104011e-11 -8.3065775e-12     57.10648     57.10648   -2289.0345   -2289.0345 -1.4117406e-13 
4163.40519398417 57.10648 -3729.10858042996
       0.982     1353    4163.4052   -3729.1086 2.3104011e-11 -8.3065775e-12     57.10648     57.10648   -2289.0345   -2289.0345 -1.4117406e-13 
4163.40519398417 57.10648 -3729.10858042996
       0.983     1354    4163.4052   -3729.1086 2.3104011e-11 -8.3065775e-12     57.10648     57.10648   -2289.0345   -2289.0345 -1.4117406e-13 
4163.40519398417 57.10648 -3729.10858042996
       0.984     1355    4163.4052   -3729.1086 2.3104011e-11 -8.3065775e-12     57.10648     57.10648   -2289.0345   -2289.0345 -1.4117406e-13 
4163.40519398417 57.10648 -3729.10858042996
       0.985     1356    4163.4052   -3729.1086 2.3104011e-11 -8.3065775e-12     57.10648     57.10648   -2289.0345   -2289.0345 -1.4117406e-13 
4163.40519398417 57.10648 -3729.10858042996
       0.986     1357    4163.4052   -3729.1086 2.3104011e-11 -8.3065775e-12     57.10648     57.10648   -2289.0345   -2289.0345 -1.4117406e-13 
4163.40519398417 57.10648 -3729.10858042996
       0.987     1358    4163.4052   -3729.1086 2.3104011e-11 -8.3065775e-12     57.10648     57.10648   -2289.0345   -2289.0345 -1.4117406e-13 
4163.40519398417 57.10648 -3729.10858042996
       0.988     1359    4163.4052   -3729.1086 2.3104011e-11 -8.3065775e-12     57.10648     57.10648   -2289.0345   -2289.0345 -1.4117406e-13 
4163.61336944822 57.10648 -3728.92212966225
       0.989     1360    4163.6134   -3728.9221 2.3102856e-11 -8.3061622e-12     57.10648     57.10648     -2288.92     -2288.92 -1.41167e-13 
4163.61336944822 57.10648 -3767.53255780366
        0.99     1361    4163.6134   -3767.5326 2.320716e-11 -8.2094402e-12     57.10648     57.10648   -2311.2802   -2311.2802 1.5578707e-13 
4163.61336944822 57.10648 -3767.53255780366
       0.991     1362    4163.6134   -3767.5326 2.320716e-11 -8.2094402e-12     57.10648     57.10648   -2311.2802   -2311.2802 1.5578707e-13 
4163.61336944822 57.10648 -3767.53255780366
       0.992     1363    4163.6134   -3767.5326 2.320716e-11 -8.2094402e-12     57.10648     57.10648   -2311.2802   -2311.2802 1.5578707e-13 
4163.61336944822 57.10648 -3767.53255780366
       0.993     1364    4163.6134   -3767.5326 2.320716e-11 -8.2094402e-12     57.10648     57.10648   -2311.2802   -2311.2802 1.5578707e-13 
4163.61336944822 57.10648 -3767.53255780366
       0.994     1365    4163.6134   -3767.5326 2.320716e-11 -8.2094402e-12     57.10648     57.10648   -2311.2802   -2311.2802 1.5578707e-13 
4163.61336944822 57.10648 -3767.53255780366
       0.995     1366    4163.6134   -3767.5326 2.320716e-11 -8.2094402e-12     57.10648     57.10648   -2311.2802   -2311.2802 1.5578707e-13 
4163.61336944822 57.10648 -3767.53255780366
       0.996     1367    4163.6134   -3767.5326 2.320716e-11 -8.2094402e-12     57.10648     57.10648   -2311.2802   -2311.2802 1.5578707e-13 
4163.61336944822 57.10648 -3767.53255780366
       0.997     1368    4163.6134   -3767.5326 2.320716e-11 -8.2094402e-12     57.10648     57.10648   -2311.2802   -2311.2802 1.5578707e-13 
4163.61336944822 57.10648 -3767.53255780366
       0.998     1369    4163.6134   -3767.5326 2.320716e-11 -8.2094402e-12     57.10648     57.10648   -2311.2802   -2311.2802 1.5578707e-13 
4163.82155532129 57.10648 -3767.34418588511
       0.999     1370    4163.8216   -3767.3442   2.3206e-11 -8.2090297e-12     57.10648     57.10648   -2311.1647   -2311.1647 1.5577928e-13 
4163.82155532129 57.10648 -3805.96331556996
           1     1371    4163.8216   -3805.9633 2.3010428e-11 -8.2320946e-12     57.10648     57.10648   -2333.5234   -2333.5234 9.3607878e-15 
Loop time of 34.8094 on 128 procs for 1000 steps with 360800 atoms

Performance: 2.482 ns/day, 9.669 hours/ns, 28.728 timesteps/s
94.9% CPU use with 128 MPI tasks x 1 OpenMP threads

MPI task timing breakdown:
Section |  min time  |  avg time  |  max time  |%varavg| %total
---------------------------------------------------------------
Pair    | 0.9062     | 3.6636     | 9.8315     | 186.7 | 10.52
Neigh   | 0.025278   | 0.045607   | 0.064421   |   2.5 |  0.13
Comm    | 0.14292    | 1.3695     | 3.9409     | 144.1 |  3.93
Output  | 18.736     | 18.809     | 18.815     |   0.2 | 54.04
Modify  | 1.3996     | 10.094     | 14.097     | 165.5 | 29.00
Other   |            | 0.8278     |            |       |  2.38

Nlocal:        2818.75 ave        9200 max           0 min
Histogram: 88 0 0 0 0 0 0 0 1 39
Nghost:        3888.73 ave       13317 max           0 min
Histogram: 87 1 0 0 0 0 2 0 0 38
Neighs:         0.00000 ave           0 max           0 min
Histogram: 128 0 0 0 0 0 0 0 0 0
FullNghs:      472488.0 ave  1.5456e+06 max           0 min
Histogram: 88 0 0 0 0 0 0 1 0 39

Total # of neighbors = 60478400
Ave neighs/atom = 167.62306
Neighbor list builds = 12
Dangerous builds = 0
