LAMMPS (29 Sep 2021 - Update 1)
KOKKOS mode is enabled (../kokkos.cpp:97)
  will use up to 4 GPU(s) per node
  using 1 OpenMP thread(s) per MPI task
Reading data file ...
  orthogonal box = (0.0000000 0.0000000 0.0000000) to (4143.0751 57.106480 57.106480)
  128 by 1 by 1 MPI processor grid
  reading atoms ...
  360800 atoms
  read_data CPU = 7.628 seconds
800 atoms in group source
800 atoms in group detector
400 atoms in group edge
400 atoms in group edge_buf
120000 atoms in group buffer
WARNING: Using 'neigh_modify every 1 delay 0 check yes' setting during minimization (../min.cpp:188)
Neighbor list info ...
  update every 1 steps, delay 0 steps, check yes
  max neighbors/atom: 2000, page size: 100000
  master list distance cutoff = 7.6
  ghost atom cutoff = 7.6
  binsize = 7.6, bins = 546 8 8
  1 neighbor lists, perpetual/occasional/extra = 1 0 0
  (1) pair eam/alloy/kk, perpetual
      attributes: full, newton off, kokkos_device
      pair build: full/bin/kk/device
      stencil: full/bin/3d
      bin: kk/device
Setting up cg/kk style minimization ...
  Unit style    : metal
  Current step  : 0
WARNING: Fixes cannot yet send exchange data in Kokkos communication, switching to classic exchange/border communication (../comm_kokkos.cpp:581)
Per MPI rank memory allocation (min/avg/max) = 2.254 | 3.806 | 7.377 Mbytes
Time Step Lx Pxx Pxy Pxz Ly Lz Pyy Pzz Pyz 
           0        0    4143.0751    12.766153 -4.3788411e-14 -2.12978e-14     57.10648     57.10648   -85.456504   -85.456504 -1.2305155e-14 
       0.001        1    4143.0751    4.9624194 -2.4660706e-14 7.1683129e-15     57.10648     57.10648   -95.172201   -95.172201 -4.867492e-13 
       0.002        2    4143.0751    2.7193318 -8.0104751e-14 -6.6911539e-15     57.10648     57.10648   -97.006352   -97.006352 3.7881055e-13 
       0.003        3    4143.0751    3.2072967 -9.2688874e-14 -7.3090919e-14     57.10648     57.10648   -96.140203   -96.140203 -1.0449283e-13 
       0.004        4    4143.0751    2.6400573 1.3612808e-13 1.2453648e-13     57.10648     57.10648   -96.501525   -96.501525 4.3336922e-13 
       0.005        5    4143.0751    1.8692697 5.1928025e-14 7.8013802e-14     57.10648     57.10648   -97.038029   -97.038029 5.5782078e-14 
       0.006        6    4143.0751    1.5880349 8.5659224e-14 -2.5886642e-14     57.10648     57.10648   -97.222835   -97.222835 -4.6979544e-13 
       0.007        7    4143.0751    1.4304795 1.3544919e-13 3.3756128e-14     57.10648     57.10648   -97.302236   -97.302236 8.1754347e-14 
       0.008        8    4143.0751    1.3102667 -2.516523e-14 5.9259566e-14     57.10648     57.10648   -97.373091   -97.373091 7.8542563e-14 
       0.009        9    4143.0751    1.1651506 -8.110301e-14 -8.0988772e-14     57.10648     57.10648   -97.467596   -97.467596 1.7983766e-13 
        0.01       10    4143.0751    1.0801049 7.4227944e-14 -2.3604116e-13     57.10648     57.10648   -97.519517   -97.519517 1.4731914e-13 
       0.011       11    4143.0751    1.0182961 9.077762e-14 -5.4422254e-14     57.10648     57.10648    -97.55383    -97.55383 -1.2606151e-13 
       0.012       12    4143.0751   0.96492776 1.7475273e-13 -8.474725e-14     57.10648     57.10648   -97.585187   -97.585187 -9.4485552e-14 
       0.013       13    4143.0751   0.90630688 -5.1370601e-14 5.4058753e-14     57.10648     57.10648   -97.622306   -97.622306 1.0920113e-14 
       0.014       14    4143.0751   0.86458184 -7.394181e-15 -1.6054759e-14     57.10648     57.10648   -97.647661   -97.647661 -4.7311218e-14 
       0.015       15    4143.0751   0.83242506 -8.9229199e-14 1.3654788e-14     57.10648     57.10648   -97.665622   -97.665622 -6.028082e-14 
       0.016       16    4143.0751   0.80214445 1.4330784e-14 -9.8324762e-14     57.10648     57.10648   -97.683642   -97.683642 9.3995586e-14 
       0.017       17    4143.0751   0.77060995 -1.0679663e-13 -1.3017624e-13     57.10648     57.10648   -97.703317   -97.703317 -6.0623222e-14 
       0.018       18    4143.0751   0.74604836 2.2355517e-14 5.3067649e-14     57.10648     57.10648   -97.718075   -97.718075 1.4507154e-13 
       0.019       19    4143.0751    0.7261273 -1.6353495e-13 1.2697065e-13     57.10648     57.10648   -97.729394   -97.729394 2.3270417e-14 
        0.02       20    4143.0751   0.70656472 -2.2424143e-14 1.0210658e-13     57.10648     57.10648   -97.741056   -97.741056 1.2021308e-13 
       0.021       21    4143.0751   0.68688549 -3.0364987e-13 7.4937179e-13     57.10648     57.10648   -97.753242   -97.753242 -4.0078808e-13 
       0.022       22    4143.0751   0.67069037 -2.8046662e-12 6.912632e-12     57.10648     57.10648   -97.762917   -97.762917 -3.9792407e-12 
       0.023       23    4143.0751   0.65753619 -1.8419074e-11 4.5566366e-11     57.10648     57.10648   -97.770453   -97.770453 -2.4958259e-11 
       0.024       24    4143.0751   0.64675986 -6.148374e-11 1.5120837e-10     57.10648     57.10648    -97.77686    -97.77686 -7.9585496e-11 
       0.025       25    4143.0751   0.63571327 -2.1910489e-11 5.3683336e-11     57.10648     57.10648    -97.78361    -97.78361 -2.5028161e-11 
       0.026       26    4143.0751   0.62405321 -5.6130614e-12 1.600667e-11     57.10648     57.10648   -97.790727   -97.790727 -3.3830775e-12 
       0.027       27    4143.0751   0.61326839 -1.0423414e-11 3.7320915e-11     57.10648     57.10648   -97.797026   -97.797026 -1.9336477e-12 
       0.028       28    4143.0751   0.60491604 -3.4687756e-11 1.230782e-10     57.10648     57.10648   -97.801884   -97.801884 -7.1736278e-12 
       0.029       29    4143.0751   0.59725463 -3.0356577e-11 9.1993065e-11     57.10648     57.10648   -97.806484   -97.806484 -8.1814786e-12 
        0.03       30    4143.0751   0.58819075 -8.9382389e-12 1.8500563e-11     57.10648     57.10648   -97.812035   -97.812035 -3.4943843e-12 
       0.031       31    4143.0751   0.57978399 -1.4303086e-11 4.4299825e-11     57.10648     57.10648   -97.817068   -97.817068 -4.5903612e-12 
       0.032       32    4143.0751   0.57307291 -3.5634552e-11 1.334412e-10     57.10648     57.10648   -97.820964   -97.820964 -7.5109207e-12 
       0.033       33    4143.0751   0.56737396 -2.2217132e-11 7.3885229e-11     57.10648     57.10648   -97.824309   -97.824309 -2.7973519e-12 
       0.034       34    4143.0751   0.56000785 -8.091313e-12 1.2690508e-11     57.10648     57.10648   -97.828768   -97.828768 2.6295456e-13 
       0.035       35    4143.0751   0.55330764 -1.0657102e-11 7.3011416e-12     57.10648     57.10648   -97.832843   -97.832843 1.3322365e-12 
       0.036       36    4143.0751   0.54800821 -1.8038097e-11 1.4985281e-11     57.10648     57.10648   -97.835979   -97.835979 3.2194208e-12 
       0.037       37    4143.0751   0.54283791 -8.6660299e-12 1.0830086e-11     57.10648     57.10648    -97.83899    -97.83899 1.9201769e-12 
       0.038       38    4143.0751    0.5371853 -9.4872943e-12 2.0114307e-11     57.10648     57.10648   -97.842343   -97.842343 5.1462293e-13 
       0.039       39    4143.0751   0.53180007 -1.9325881e-11 4.4229163e-11     57.10648     57.10648   -97.845617   -97.845617 -3.055455e-12 
        0.04       40    4143.0751   0.52733267 -1.4208015e-11 2.6252001e-11     57.10648     57.10648   -97.848316   -97.848316 -2.9908924e-12 
       0.041       41    4143.0751   0.52240967 -6.4160766e-12 1.126705e-11     57.10648     57.10648   -97.851216   -97.851216 -1.5004615e-12 
       0.042       42    4143.0751   0.51800714 -6.2045908e-12 2.545396e-11     57.10648     57.10648   -97.853791   -97.853791 -2.7706158e-12 
       0.043       43    4143.0751   0.51401708 -7.2978132e-12 3.7348191e-11     57.10648     57.10648   -97.856178   -97.856178 -3.020875e-12 
       0.044       44    4143.0751   0.50962588 -4.6945647e-12 1.7565744e-11     57.10648     57.10648   -97.858844   -97.858844 -4.3505059e-13 
       0.045       45    4143.0751   0.50537206 -4.6888982e-12 1.8802067e-11     57.10648     57.10648   -97.861396   -97.861396 8.9218126e-13 
       0.046       46    4143.0751   0.50180383 -3.8091745e-12 2.1328723e-11     57.10648     57.10648   -97.863488   -97.863488 2.1208936e-12 
       0.047       47    4143.0751   0.49841414 -2.8605621e-12 9.040214e-12     57.10648     57.10648   -97.865478   -97.865478 1.0148877e-12 
       0.048       48    4143.0751   0.49441572 -3.871556e-12 6.2898256e-12     57.10648     57.10648   -97.867882   -97.867882 -2.8809944e-13 
       0.049       49    4143.0751   0.49089603 -4.3517097e-12 8.4928876e-12     57.10648     57.10648   -97.870014   -97.870014 -1.5364087e-12 
        0.05       50    4143.0751   0.48775848 -2.5364097e-12 4.586557e-12     57.10648     57.10648   -97.871885   -97.871885 -1.0708179e-12 
       0.051       51    4143.0751   0.48442451 -2.3441356e-12 2.903013e-12     57.10648     57.10648   -97.873839   -97.873839 -6.0518765e-13 
       0.052       52    4143.0751   0.48129769 -5.0919619e-12 7.6618138e-12     57.10648     57.10648    -97.87569    -97.87569 -1.8490801e-12 
       0.053       53    4143.0751    0.4783177 -5.615535e-12 8.633759e-12     57.10648     57.10648   -97.877486   -97.877486 -2.0727833e-12 
       0.054       54    4143.0751    0.4752352 -3.5631545e-12 4.6658675e-12     57.10648     57.10648   -97.879349   -97.879349 -8.0766701e-13 
       0.055       55    4143.0751   0.47224741 -4.4900849e-12 6.8545971e-12     57.10648     57.10648   -97.881119   -97.881119 -3.4816481e-13 
       0.056       56    4143.0751    0.4697375 -5.0833491e-12 7.6912521e-12     57.10648     57.10648   -97.882592   -97.882592 3.1003012e-13 
       0.057       57    4143.0751   0.46704572 -4.0417035e-12 4.5055201e-12     57.10648     57.10648   -97.884191   -97.884191 6.4895885e-13 
       0.058       58    4143.0751   0.46411955 -4.7117979e-12 5.3178285e-12     57.10648     57.10648   -97.885959   -97.885959 8.9063119e-13 
       0.059       59    4143.0751   0.46164409 -6.2886511e-12 7.1738743e-12     57.10648     57.10648   -97.887446   -97.887446 1.2912149e-12 
        0.06       60    4143.0751   0.45917429 -5.7270702e-12 4.3151155e-12     57.10648     57.10648   -97.888905   -97.888905 1.0349282e-12 
       0.061       61    4143.0751   0.45670482 -8.4218025e-12 4.2427363e-12     57.10648     57.10648   -97.890358   -97.890358 1.7659996e-12 
       0.062       62    4143.0751   0.45436429 -1.4802084e-11 7.1326668e-12     57.10648     57.10648   -97.891757   -97.891757 3.1429295e-12 
       0.063       63    4143.0751   0.45205261 -1.0062628e-11 4.1358772e-12     57.10648     57.10648   -97.893153   -97.893153 2.0702005e-12 
       0.064       64    4143.0751   0.44965617 -1.0461014e-11 2.7965717e-12     57.10648     57.10648   -97.894587   -97.894587 2.8008755e-12 
       0.065       65    4143.0751   0.44748888 -1.5488451e-11 4.531892e-12     57.10648     57.10648   -97.895864   -97.895864 5.3757442e-12 
       0.066       66    4143.0751   0.44551208 -1.0784002e-11 4.6411153e-12     57.10648     57.10648   -97.897031   -97.897031 4.2523711e-12 
       0.067       67    4143.0751   0.44323887 -7.5201836e-12 3.7645598e-12     57.10648     57.10648   -97.898393   -97.898393 3.091205e-12 
       0.068       68    4143.0751      0.44112 -9.1378273e-12 3.9649974e-12     57.10648     57.10648    -97.89967    -97.89967 3.774155e-12 
       0.069       69    4143.0751   0.43917145 -6.4407567e-12 2.7412198e-12     57.10648     57.10648   -97.900833   -97.900833 2.6836064e-12 
        0.07       70    4143.0751   0.43713508 -3.7551011e-12 1.5683375e-12     57.10648     57.10648   -97.902032   -97.902032 1.6904635e-12 
       0.071       71    4143.0751   0.43522672 -4.3248937e-12 1.8172446e-12     57.10648     57.10648   -97.903163   -97.903163 1.636742e-12 
       0.072       72    4143.0751   0.43333211 -3.6285052e-12 2.2179374e-12     57.10648     57.10648     -97.9043     -97.9043 7.1909573e-13 
       0.073       73    4143.0751   0.43136138 -1.8393046e-12 1.9173057e-12     57.10648     57.10648   -97.905487   -97.905487 4.5814804e-14 
       0.074       74    4143.0751   0.42949573 -5.7783009e-13 1.3351578e-12     57.10648     57.10648   -97.906595   -97.906595 -2.3557951e-13 
       0.075       75    4143.0751   0.42780753 -3.9903021e-13 7.6639593e-13     57.10648     57.10648    -97.90759    -97.90759 -7.1806565e-14 
       0.076       76    4143.0751   0.42598835 -4.6584207e-13 1.0412385e-12     57.10648     57.10648   -97.908671   -97.908671 -3.315496e-14 
       0.077       77    4143.0751    0.4241322 -5.9162883e-13 2.0793256e-12     57.10648     57.10648   -97.909788   -97.909788 3.5872328e-13 
       0.078       78    4143.0751   0.42250164 -3.8551041e-13 2.259502e-12     57.10648     57.10648   -97.910766   -97.910766 3.2033241e-13 
       0.079       79    4143.0751   0.42078542 -5.8655884e-13 2.294399e-12     57.10648     57.10648   -97.911783   -97.911783 3.5158459e-13 
        0.08       80    4143.0751   0.41914854 -8.3087205e-13 3.1949557e-12     57.10648     57.10648   -97.912749   -97.912749 8.1809416e-13 
       0.081       81    4143.0751   0.41758603 -1.8698195e-13 2.7350807e-12     57.10648     57.10648   -97.913681   -97.913681 9.3371849e-13 
       0.082       82    4143.0751   0.41588554 2.3658134e-13 1.8927858e-12     57.10648     57.10648   -97.914704   -97.914704 4.2327701e-13 
       0.083       83    4143.0751   0.41424459 -2.7964303e-13 1.9612753e-12     57.10648     57.10648   -97.915685   -97.915685 4.9494843e-13 
       0.084       84    4143.0751   0.41275467 -5.5276382e-13 1.4909018e-12     57.10648     57.10648   -97.916567   -97.916567 5.5274473e-13 
       0.085       85    4143.0751   0.41125856 -1.1971067e-13 5.7369967e-13     57.10648     57.10648   -97.917451   -97.917451 3.9358951e-13 
       0.086       86    4143.0751   0.40967831 -1.3949653e-13 6.2890999e-13     57.10648     57.10648   -97.918396   -97.918396 6.8396227e-13 
       0.087       87    4143.0751   0.40821102 -2.0182499e-14 1.4774452e-12     57.10648     57.10648   -97.919278   -97.919278 7.0719042e-13 
       0.088       88    4143.0751   0.40671973 3.8327032e-13 1.374383e-12     57.10648     57.10648   -97.920169   -97.920169 6.0497037e-13 
       0.089       89    4143.0751   0.40524631 -3.1125845e-13 1.2265033e-12     57.10648     57.10648   -97.921039   -97.921039 9.2328391e-13 
        0.09       90    4143.0751   0.40390208 -4.0410685e-13 1.0874928e-12     57.10648     57.10648   -97.921836   -97.921836 1.1247525e-12 
       0.091       91    4143.0751   0.40243363 -9.0235156e-15 4.9253514e-13     57.10648     57.10648   -97.922715   -97.922715 7.4021502e-13 
       0.092       92    4143.0751   0.40098282 6.6389032e-14 1.7916535e-13     57.10648     57.10648   -97.923587   -97.923587 4.6105271e-13 
       0.093       93    4143.0751    0.3996478 -2.5509174e-13 2.7187641e-13     57.10648     57.10648   -97.924381   -97.924381 1.3312949e-13 
       0.094       94    4143.0751   0.39828752 8.3700206e-14 7.1378871e-13     57.10648     57.10648   -97.925185   -97.925185 -8.4355348e-14 
       0.095       95    4143.0751   0.39692052 -1.0057376e-13 6.0091496e-13     57.10648     57.10648   -97.925997   -97.925997 -6.2908607e-13 
       0.096       96    4143.0751   0.39559576 -3.1064754e-13 9.0784566e-13     57.10648     57.10648   -97.926792   -97.926792 -4.8131224e-13 
       0.097       97    4143.0751   0.39426084 -2.5178601e-13 1.1247804e-12     57.10648     57.10648   -97.927592   -97.927592 -2.4665153e-13 
       0.098       98    4143.0751   0.39292357 1.3712097e-14 1.4038452e-12     57.10648     57.10648   -97.928386   -97.928386 -2.5922827e-13 
       0.099       99    4143.0751   0.39170464 9.452342e-14 1.2175473e-12     57.10648     57.10648   -97.929107   -97.929107 -6.7737307e-14 
         0.1      100    4143.0751   0.39042383 2.6448021e-13 8.0687533e-13     57.10648     57.10648    -97.92987    -97.92987 2.4392782e-13 
       0.101      101    4143.0751   0.38909833 1.2621261e-13 8.1710098e-13     57.10648     57.10648   -97.930665   -97.930665 5.0017434e-13 
       0.102      102    4143.0751   0.38787799 1.6066691e-13 8.2203119e-13     57.10648     57.10648   -97.931396   -97.931396 3.6008233e-13 
       0.103      103    4143.0751   0.38661546 2.1257543e-13 8.6627298e-13     57.10648     57.10648   -97.932144   -97.932144 2.369484e-13 
       0.104      104    4143.0751   0.38539482 -1.6696102e-13 3.8905609e-13     57.10648     57.10648   -97.932867   -97.932867 -2.5720747e-14 
       0.105      105    4143.0751   0.38421642 2.9437225e-13 2.4302872e-13     57.10648     57.10648    -97.93357    -97.93357 -1.6879431e-14 
       0.106      106    4143.0751   0.38296746 6.9215691e-13 2.4977276e-13     57.10648     57.10648    -97.93432    -97.93432 7.3651931e-15 
       0.107      107    4143.0751   0.38174077 4.9765487e-14 3.3462269e-13     57.10648     57.10648   -97.935052   -97.935052 -4.2557295e-13 
       0.108      108    4143.0751   0.38059965 2.4227394e-14 4.1494708e-13     57.10648     57.10648   -97.935728   -97.935728 -3.5706269e-13 
       0.109      109    4143.0751    0.3794399 6.7777012e-13 -1.0220171e-14     57.10648     57.10648   -97.936415   -97.936415 -1.4668125e-14 
        0.11      110    4143.0751   0.37822384 4.4307182e-13 -1.7750558e-13     57.10648     57.10648   -97.937142   -97.937142 -6.1593087e-15 
       0.111      111    4143.0751   0.37708528 1.9811936e-13 1.7565828e-13     57.10648     57.10648   -97.937825   -97.937825 2.0335674e-13 
       0.112      112    4143.0751    0.3759237 1.9520748e-13 4.202082e-13     57.10648     57.10648   -97.938518   -97.938518 -3.8058761e-14 
       0.113      113    4143.0751   0.37477567 8.3178021e-15 3.3029244e-13     57.10648     57.10648   -97.939197   -97.939197 -3.0212403e-14 
       0.114      114    4143.0751   0.37370018 2.5243606e-13 3.5350286e-13     57.10648     57.10648   -97.939836   -97.939836 -1.9397933e-14 
       0.115      115    4143.0751   0.37254207 3.2751684e-13 -6.1636922e-14     57.10648     57.10648   -97.940529   -97.940529 -2.2263872e-13 
       0.116      116    4143.0751   0.37140835 2.126224e-14 -3.1536371e-13     57.10648     57.10648   -97.941209   -97.941209 -1.6732889e-13 
       0.117      117    4143.0751   0.37033399 6.5967385e-15 1.3854111e-13     57.10648     57.10648   -97.941848   -97.941848 -1.3252774e-13 
       0.118      118    4143.0751   0.36923128 2.6154243e-13 2.636103e-13     57.10648     57.10648   -97.942501   -97.942501 -1.8002184e-13 
       0.119      119    4143.0751   0.36812929 2.4182688e-13 -1.3911433e-13     57.10648     57.10648   -97.943156   -97.943156 -3.5518176e-14 
        0.12      120    4143.0751   0.36704491 -1.3439581e-14 3.1472102e-14     57.10648     57.10648   -97.943806   -97.943806 9.8892763e-14 
       0.121      121    4143.0751   0.36594163 1.9869909e-13 3.7989118e-13     57.10648     57.10648   -97.944466   -97.944466 8.0369417e-14 
       0.122      122    4143.0751   0.36485253 3.3257516e-13 -9.3705054e-14     57.10648     57.10648   -97.945113   -97.945113 7.5073333e-14 
       0.123      123    4143.0751   0.36383787 1.6509083e-13 -5.6291921e-14     57.10648     57.10648   -97.945714   -97.945714 1.6992939e-13 
       0.124      124    4143.0751    0.3627587 3.0519717e-13 3.9695164e-13     57.10648     57.10648   -97.946357   -97.946357 1.7892319e-13 
       0.125      125    4143.0751    0.3616713 9.770149e-14 5.960279e-13     57.10648     57.10648   -97.947009   -97.947009 3.7541355e-14 
       0.126      126    4143.0751   0.36065553 1.088709e-13 7.4629467e-13     57.10648     57.10648   -97.947616   -97.947616 -1.8720135e-14 
       0.127      127    4143.0751   0.35960114 -1.0271571e-13 6.6339397e-13     57.10648     57.10648   -97.948241   -97.948241 -1.4390705e-13 
       0.128      128    4143.0751   0.35857586 -4.4600318e-13 3.6151433e-13     57.10648     57.10648   -97.948849   -97.948849 -4.1479338e-14 
       0.129      129    4143.0751   0.35755042 -2.828021e-13 5.7814713e-13     57.10648     57.10648   -97.949462   -97.949462 -2.6431606e-13 
        0.13      130    4143.0751   0.35648957 -1.1997492e-13 9.3682518e-13     57.10648     57.10648   -97.950097   -97.950097 -1.4994464e-13 
       0.131      131    4143.0751   0.35546766 -5.8929311e-13 9.4061567e-13     57.10648     57.10648   -97.950707   -97.950707 -1.1231217e-13 
       0.132      132    4143.0751   0.35447226 -3.2928992e-13 1.0779991e-12     57.10648     57.10648   -97.951297   -97.951297 1.8785303e-15 
       0.133      133    4143.0751   0.35345397 -5.3007302e-13 9.0287006e-13     57.10648     57.10648   -97.951902   -97.951902 1.3482622e-13 
       0.134      134    4143.0751   0.35243034 -9.1730661e-13 8.0369992e-13     57.10648     57.10648   -97.952513   -97.952513 1.6666066e-13 
       0.135      135    4143.0751   0.35143703 -7.4397501e-13 7.9013926e-13     57.10648     57.10648   -97.953108   -97.953108 2.0390204e-13 
       0.136      136    4143.0751   0.35041496 -5.4247262e-13 5.9178115e-13     57.10648     57.10648   -97.953717   -97.953717 1.548885e-13 
       0.137      137    4143.0751   0.34943571 -6.1935359e-13 7.7635571e-13     57.10648     57.10648   -97.954298   -97.954298 1.8725184e-13 
       0.138      138    4143.0751   0.34846988 -3.5891876e-13 6.6944579e-13     57.10648     57.10648   -97.954872   -97.954872 2.7076417e-14 
       0.139      139    4143.0751   0.34743819 -1.0931994e-13 8.1828539e-13     57.10648     57.10648   -97.955489   -97.955489 -7.4906319e-14 
        0.14      140    4143.0751   0.34645965 7.6148765e-14 7.9445171e-13     57.10648     57.10648   -97.956074   -97.956074 -5.4360882e-14 
       0.141      141    4143.0751   0.34548459 2.0768346e-14 9.2765445e-13     57.10648     57.10648   -97.956654   -97.956654 -2.7539666e-14 
       0.142      142    4143.0751   0.34449157 3.3908357e-13 9.4179502e-13     57.10648     57.10648   -97.957243   -97.957243 -2.3516068e-13 
       0.143      143    4143.0751   0.34353012 3.9198794e-13 5.8177994e-13     57.10648     57.10648   -97.957816   -97.957816 -1.3172154e-13 
       0.144      144    4143.0751   0.34255146 3.7150758e-13 7.4679631e-13     57.10648     57.10648   -97.958401   -97.958401 -3.7464968e-14 
       0.145      145    4143.0751   0.34155746 2.1897674e-13 9.9108513e-13     57.10648     57.10648   -97.958996   -97.958996 -2.1924782e-13 
       0.146      146    4143.0751   0.34060223 3.9219285e-13 1.0028953e-12     57.10648     57.10648   -97.959563   -97.959563 -9.977329e-14 
       0.147      147    4143.0751    0.3396633 4.9623445e-13 9.0490075e-13     57.10648     57.10648    -97.96012    -97.96012 -1.810649e-13 
       0.148      148    4143.0751   0.33867769 3.2756332e-13 1.0187274e-12     57.10648     57.10648   -97.960708   -97.960708 -2.1743015e-13 
       0.149      149    4143.0751   0.33772059 2.6737211e-13 9.2166557e-13     57.10648     57.10648   -97.961281   -97.961281 -2.2428312e-13 
        0.15      150    4143.0751   0.33676771 4.0026107e-13 6.3305832e-13     57.10648     57.10648   -97.961849   -97.961849 -1.6081225e-13 
       0.151      151    4143.0751     0.335792 5.9344569e-13 8.0289457e-13     57.10648     57.10648   -97.962429   -97.962429 -1.7837012e-13 
       0.152      152    4143.0751   0.33486913 3.2629849e-13 4.0480063e-13     57.10648     57.10648   -97.962977   -97.962977 -6.3525755e-14 
       0.153      153    4143.0751   0.33390795 1.1298139e-13 3.287392e-13     57.10648     57.10648    -97.96355    -97.96355 -5.9048348e-14 
       0.154      154    4143.0751   0.33293183 -2.1593988e-13 3.7655329e-13     57.10648     57.10648   -97.964135   -97.964135 -1.3553852e-13 
       0.155      155    4143.0751   0.33200807 -8.7194522e-14 4.6090784e-13     57.10648     57.10648   -97.964685   -97.964685 -4.3713738e-15 
       0.156      156    4143.0751   0.33106809 2.6707014e-13 2.853223e-13     57.10648     57.10648   -97.965243   -97.965243 9.3811032e-14 
       0.157      157    4143.0751   0.33011758 -1.2831261e-13 5.4995678e-13     57.10648     57.10648   -97.965808   -97.965808 -5.2943094e-14 
       0.158      158    4143.0751   0.32918201 -6.2891887e-13 6.0650615e-13     57.10648     57.10648   -97.966367   -97.966367 1.5034322e-13 
       0.159      159    4143.0751   0.32824013 -3.441306e-13 6.1792803e-13     57.10648     57.10648   -97.966931   -97.966931 2.0469585e-13 
        0.16      160    4143.0751   0.32728892 -4.519293e-13 3.605539e-13     57.10648     57.10648   -97.967497   -97.967497 -3.6910493e-15 
       0.161      161    4143.0751   0.32638014 -4.8989877e-13 2.3900099e-13     57.10648     57.10648   -97.968036   -97.968036 5.5198128e-14 
       0.162      162    4143.0751   0.32544829 -1.7742536e-13 1.0859797e-13     57.10648     57.10648   -97.968591   -97.968591 4.8739978e-14 
       0.163      163    4143.0751    0.3244887 -3.370462e-13 3.0916968e-13     57.10648     57.10648   -97.969164   -97.969164 -1.1224867e-13 
       0.164      164    4143.0751   0.32357567 -3.3092658e-13 4.5832044e-13     57.10648     57.10648    -97.96971    -97.96971 -1.4316426e-13 
       0.165      165    4143.0751   0.32263704 -2.796691e-13 8.1249303e-13     57.10648     57.10648   -97.970268   -97.970268 -4.6389066e-14 
       0.166      166    4143.0751   0.32171144 -1.7169987e-14 4.5851633e-13     57.10648     57.10648   -97.970818   -97.970818 -2.4024185e-13 
       0.167      167    4143.0751   0.32080036 3.3285194e-13 1.3173029e-13     57.10648     57.10648    -97.97136    -97.97136 -2.1460229e-13 
       0.168      168    4143.0751   0.31984872 1.5632174e-13 2.6759746e-13     57.10648     57.10648    -97.97193    -97.97193 -5.425452e-14 
       0.169      169    4143.0751   0.31891977 -2.0982318e-14 5.1321824e-13     57.10648     57.10648   -97.972484   -97.972484 -8.3140066e-14 
        0.17      170    4143.0751   0.31801011 2.1201859e-13 3.1626509e-13     57.10648     57.10648   -97.973025   -97.973025 2.5680314e-14 
       0.171      171    4143.0751   0.31708506 2.1128442e-13 3.1684511e-13     57.10648     57.10648   -97.973574   -97.973574 -4.9226498e-14 
       0.172      172    4143.0751   0.31615498 2.4186069e-15 7.2894185e-13     57.10648     57.10648   -97.974129   -97.974129 -1.1972241e-13 
       0.173      173    4143.0751   0.31524185 4.023923e-16 7.9722676e-13     57.10648     57.10648   -97.974675   -97.974675 -1.0169978e-13 
       0.174      174    4143.0751    0.3143087 2.9643659e-13 4.3652459e-13     57.10648     57.10648   -97.975232   -97.975232 -3.6737358e-14 
       0.175      175    4143.0751   0.31338912 2.7830022e-13 -1.6077474e-13     57.10648     57.10648   -97.975778   -97.975778 9.5055014e-16 
       0.176      176    4143.0751   0.31249487 2.9939593e-13 9.4517151e-14     57.10648     57.10648   -97.976309   -97.976309 1.1168233e-13 
       0.177      177    4143.0751    0.3115552 2.0334411e-13 2.9771936e-13     57.10648     57.10648    -97.97687    -97.97687 6.1550418e-14 
       0.178      178    4143.0751   0.31063927 2.3782027e-14 7.6397856e-14     57.10648     57.10648   -97.977418   -97.977418 1.6382291e-13 
       0.179      179    4143.0751    0.3097319 4.7527822e-14 -1.2254667e-13     57.10648     57.10648   -97.977959   -97.977959 2.0511203e-13 
        0.18      180    4143.0751   0.30880532 -4.7110679e-14 1.3225133e-13     57.10648     57.10648   -97.978509   -97.978509 1.2960473e-13 
       0.181      181    4143.0751   0.30790793 8.5439216e-14 3.4163435e-13     57.10648     57.10648   -97.979043   -97.979043  2.60973e-14 
       0.182      182    4143.0751   0.30698716 -3.6190701e-15 -1.4148985e-13     57.10648     57.10648   -97.979593   -97.979593 9.1183554e-14 
       0.183      183    4143.0751   0.30605437 -2.3404548e-13 -3.1869516e-13     57.10648     57.10648    -97.98015    -97.98015 8.7667449e-15 
       0.184      184    4143.0751   0.30514804 -8.0082854e-14 -1.4985041e-13     57.10648     57.10648    -97.98069    -97.98069 -1.7387833e-14 
       0.185      185    4143.0751   0.30424415 6.6320116e-14 1.6152472e-13     57.10648     57.10648   -97.981227   -97.981227 -8.1764009e-14 
       0.186      186    4143.0751   0.30332121 -4.8077573e-13 2.1498448e-14     57.10648     57.10648   -97.981776   -97.981776 -9.0014125e-14 
       0.187      187    4143.0751   0.30240945 -7.9603726e-13 -3.4577267e-13     57.10648     57.10648   -97.982321   -97.982321 8.4295267e-14 
       0.188      188    4143.0751   0.30149831 -5.0517634e-13 -1.051919e-13     57.10648     57.10648   -97.982865   -97.982865 8.7903769e-14 
       0.189      189    4143.0751   0.30057242 -7.0405381e-13 1.3578083e-13     57.10648     57.10648   -97.983416   -97.983416 9.1421372e-14 
        0.19      190    4143.0751   0.29968381 -1.3074382e-12 4.4038421e-13     57.10648     57.10648   -97.983944   -97.983944 7.3875792e-14 
       0.191      191    4143.0751   0.29876851 -1.1979894e-12 2.5582578e-13     57.10648     57.10648   -97.984489   -97.984489 2.2407025e-14 
       0.192      192    4143.0751   0.29783863 -9.2435606e-13 7.9602488e-14     57.10648     57.10648   -97.985045   -97.985045 1.9390242e-13 
       0.193      193    4143.0751   0.29694447 -4.8859755e-13 -3.7496738e-13     57.10648     57.10648   -97.985579   -97.985579 3.393191e-14 
       0.194      194    4143.0751   0.29602258 -3.8456053e-13 -3.7523575e-13     57.10648     57.10648   -97.986127   -97.986127 1.1642013e-13 
       0.195      195    4143.0751   0.29511045 -3.6738911e-13 -1.7576591e-13     57.10648     57.10648   -97.986669   -97.986669 3.9508166e-14 
       0.196      196    4143.0751   0.29420852 7.2138567e-14 -4.0159071e-13     57.10648     57.10648   -97.987207   -97.987207 5.5110505e-14 
       0.197      197    4143.0751    0.2932838 -6.6498594e-13 -5.9719982e-13     57.10648     57.10648   -97.987759   -97.987759 2.2294861e-14 
       0.198      198    4143.0751   0.29236734 -6.6672645e-13 -3.826696e-13     57.10648     57.10648   -97.988306   -97.988306 2.1753448e-14 
       0.199      199    4143.0751   0.29146681 -7.6191584e-13 -2.6194154e-13     57.10648     57.10648   -97.988841   -97.988841 2.0386618e-13 
         0.2      200    4143.0751   0.29055165 -4.7172844e-13 -4.8735952e-13     57.10648     57.10648   -97.989385   -97.989385 -1.0002326e-13 
       0.201      201    4143.0751   0.28962882 -5.2637334e-13 -8.6606824e-13     57.10648     57.10648   -97.989936   -97.989936 -2.3052007e-14 
       0.202      202    4143.0751   0.28872897 -3.5125027e-13 -8.1516785e-13     57.10648     57.10648   -97.990474   -97.990474 -3.2443334e-14 
       0.203      203    4143.0751   0.28780528 -6.1335419e-13 -8.1070637e-13     57.10648     57.10648   -97.991024   -97.991024 -6.2084858e-15 
       0.204      204    4143.0751   0.28689901 -9.736087e-13 -8.0056772e-13     57.10648     57.10648   -97.991562   -97.991562 -2.7088784e-13 
       0.205      205    4143.0751   0.28600627 -4.301099e-13 -6.8423043e-13     57.10648     57.10648   -97.992094   -97.992094 -1.9221032e-13 
       0.206      206    4143.0751   0.28507158 -4.1536469e-13 -3.3790827e-13     57.10648     57.10648   -97.992652   -97.992652 -7.9819694e-14 
       0.207      207    4143.0751   0.28416355 -3.0212882e-13 -5.9890723e-13     57.10648     57.10648   -97.993194   -97.993194 -1.4174984e-14 
       0.208      208    4143.0751   0.28325659 -1.7483528e-13 -1.1499739e-12     57.10648     57.10648   -97.993734   -97.993734  3.00616e-14 
       0.209      209    4143.0751   0.28233599 -1.4427422e-13 -9.0711053e-13     57.10648     57.10648   -97.994281   -97.994281 -4.4301974e-14 
        0.21      210    4143.0751   0.28143217 -2.6044259e-13 -7.8703768e-13     57.10648     57.10648   -97.994819   -97.994819 4.2369209e-14 
       0.211      211    4143.0751   0.28051344 -3.3627395e-13 -7.1453717e-13     57.10648     57.10648   -97.995368   -97.995368 8.1299664e-14 
       0.212      212    4143.0751   0.27958529 -2.6751537e-13 -6.3975811e-13     57.10648     57.10648   -97.995922   -97.995922 1.9608461e-13 
       0.213      213    4143.0751   0.27867684 -3.0906921e-13 -2.7002489e-13     57.10648     57.10648   -97.996463   -97.996463 3.346324e-13 
       0.214      214    4143.0751    0.2777739 -4.9425483e-13 -3.6265713e-13     57.10648     57.10648   -97.996999   -97.996999 -2.5295687e-14 
       0.215      215    4143.0751   0.27684434 -1.5651899e-13 -7.6007797e-13     57.10648     57.10648   -97.997553   -97.997553 -1.9200533e-13 
       0.216      216    4143.0751   0.27593228 -3.7222689e-14 -6.5576505e-13     57.10648     57.10648   -97.998098   -97.998098 -8.6620048e-14 
       0.217      217    4143.0751   0.27501891 -2.6377541e-13 -3.6621936e-13     57.10648     57.10648   -97.998643   -97.998643 -3.5118764e-14 
       0.218      218    4143.0751   0.27409224 -3.279572e-13 -4.4202975e-13     57.10648     57.10648   -97.999194   -97.999194 6.6005689e-14 
       0.219      219    4143.0751   0.27319757 -5.5324265e-13 -6.5240158e-13     57.10648     57.10648   -97.999726   -97.999726 -9.0382264e-14 
        0.22      220    4143.0751   0.27227269 -6.1972155e-13 -4.2965586e-13     57.10648     57.10648   -98.000278   -98.000278 -1.1256605e-13 
       0.221      221    4143.0751   0.27134185 -4.4227899e-13 -4.1634373e-13     57.10648     57.10648   -98.000834   -98.000834 -1.8228201e-13 
       0.222      222    4143.0751   0.27043623 -1.5841661e-13 -6.6816252e-13     57.10648     57.10648   -98.001374   -98.001374 5.4101819e-14 
       0.223      223    4143.0751   0.26951468 8.1791349e-14 -5.3330304e-13     57.10648     57.10648   -98.001921   -98.001921 1.3779592e-14 
       0.224      224    4143.0751   0.26859914 -5.8300367e-13 -4.9004016e-13     57.10648     57.10648   -98.002466   -98.002466 3.5233327e-14 
       0.225      225    4143.0751   0.26768379 -4.0334307e-13 -4.0335001e-13     57.10648     57.10648   -98.003012   -98.003012 9.3282404e-14 
       0.226      226    4143.0751   0.26675508 -3.2043353e-13 -3.4878919e-13     57.10648     57.10648   -98.003567   -98.003567 -5.219016e-14 
       0.227      227    4143.0751   0.26583188 -4.3335678e-13 -1.0972866e-13     57.10648     57.10648   -98.004117   -98.004117 2.2721358e-13 
       0.228      228    4143.0751   0.26492774 -8.4030246e-13 -5.1067413e-13     57.10648     57.10648   -98.004654   -98.004654 2.2190785e-13 
       0.229      229    4143.0751   0.26400546 -9.065512e-13 -5.3386119e-13     57.10648     57.10648   -98.005203   -98.005203 4.3055482e-14 
        0.23      230    4143.0751   0.26307708 -7.4294725e-13 -3.1086508e-13     57.10648     57.10648   -98.005758   -98.005758 9.7021064e-14 
       0.231      231    4143.0751   0.26216409 -3.9616759e-13 -6.0463629e-14     57.10648     57.10648   -98.006303   -98.006303 -1.4898222e-14 
       0.232      232    4143.0751   0.26122901 -4.2204855e-13 1.7791745e-13     57.10648     57.10648   -98.006859   -98.006859 -5.9808265e-14 
       0.233      233    4143.0751   0.26031796 -6.6683297e-13 5.5400001e-13     57.10648     57.10648   -98.007401   -98.007401 -1.4055974e-14 
       0.234      234    4143.0751   0.25940407 -6.869036e-13 7.1998843e-13     57.10648     57.10648   -98.007945   -98.007945 -2.4033844e-14 
       0.235      235    4143.0751   0.25846029 -8.3861901e-13 5.4348619e-13     57.10648     57.10648   -98.008509   -98.008509 -9.1328461e-14 
       0.236      236    4143.0751   0.25754407 -1.0591025e-12 2.2989065e-13     57.10648     57.10648   -98.009056   -98.009056 -7.4792845e-14 
       0.237      237    4143.0751   0.25662205 -8.7590979e-13 1.1489554e-14     57.10648     57.10648   -98.009604   -98.009604 -8.1708631e-15 
       0.238      238    4143.0751   0.25569337 -7.0625648e-13 1.0336578e-13     57.10648     57.10648   -98.010156   -98.010156 -9.5115657e-14 
       0.239      239    4143.0751   0.25477353 -6.7635619e-13 7.8305258e-14     57.10648     57.10648   -98.010705   -98.010705 -1.2634539e-13 
        0.24      240    4143.0751   0.25384342 -4.3528113e-13 -5.167076e-14     57.10648     57.10648    -98.01126    -98.01126 -3.390791e-13 
       0.241      241    4143.0751   0.25290701 -2.59368e-13 -2.1240932e-13     57.10648     57.10648   -98.011819   -98.011819 -3.621926e-14 
       0.242      242    4143.0751   0.25198915 -2.7726323e-13 -2.1531351e-13     57.10648     57.10648   -98.012365   -98.012365 -1.3109637e-13 
       0.243      243    4143.0751   0.25106914 -8.5461225e-13 2.7836529e-13     57.10648     57.10648   -98.012912   -98.012912 4.7517233e-14 
       0.244      244    4143.0751   0.25012453 -8.9199952e-13 2.1358684e-13     57.10648     57.10648   -98.013475   -98.013475 2.2214106e-13 
       0.245      245    4143.0751   0.24920135 -6.2149849e-13 7.6674527e-15     57.10648     57.10648   -98.014027   -98.014027 7.7336844e-14 
       0.246      246    4143.0751   0.24826838 -7.8349171e-13 -4.304846e-13     57.10648     57.10648   -98.014583   -98.014583 5.1547056e-14 
       0.247      247    4143.0751   0.24733438 -1.151181e-12 -4.7114995e-13     57.10648     57.10648   -98.015138   -98.015138 1.436965e-13 
       0.248      248    4143.0751    0.2464215 -9.0195116e-13 -5.7008105e-13     57.10648     57.10648   -98.015681   -98.015681 2.183097e-13 
       0.249      249    4143.0751   0.24547675 -6.5879812e-13 -4.5560495e-13     57.10648     57.10648   -98.016245   -98.016245 1.5109996e-13 
        0.25      250    4143.0751   0.24454197 -9.80489e-13 -3.2503753e-13     57.10648     57.10648   -98.016803   -98.016803 1.0035687e-13 
       0.251      251    4143.0751    0.2436191 -1.1081635e-12 -3.6235663e-13     57.10648     57.10648   -98.017353   -98.017353 2.7305316e-14 
       0.252      252    4143.0751   0.24268123 -7.4748503e-13 9.0798552e-14     57.10648     57.10648    -98.01791    -98.01791 -7.6984799e-14 
       0.253      253    4143.0751   0.24175091 -1.277076e-12 3.6546483e-13     57.10648     57.10648   -98.018464   -98.018464 -1.8814357e-15 
       0.254      254    4143.0751   0.24081987 -1.2880267e-12 9.9112606e-14     57.10648     57.10648    -98.01902    -98.01902 4.9483041e-14 
       0.255      255    4143.0751    0.2398779 -5.9553364e-13 1.2342557e-14     57.10648     57.10648   -98.019582   -98.019582 3.8772073e-14 
       0.256      256    4143.0751   0.23894548 -7.4844201e-13 4.4088311e-13     57.10648     57.10648   -98.020137   -98.020137 1.4888438e-13 
       0.257      257    4143.0751   0.23802578 -7.5918506e-13 2.7832264e-13     57.10648     57.10648   -98.020684   -98.020684 1.3077494e-13 
       0.258      258    4143.0751   0.23707839 -1.9702618e-13 2.0315449e-13     57.10648     57.10648   -98.021249   -98.021249 -1.5234876e-14 
       0.259      259    4143.0751   0.23613772 -2.6070479e-13 2.940133e-13     57.10648     57.10648    -98.02181    -98.02181 1.6399899e-15 
        0.26      260    4143.0751   0.23520717 -8.8187804e-13 1.3404195e-13     57.10648     57.10648   -98.022365   -98.022365 5.9464949e-14 
       0.261      261    4143.0751   0.23425752 -9.1824964e-13 1.5206748e-13     57.10648     57.10648    -98.02293    -98.02293 7.7809554e-14 
       0.262      262    4143.0751   0.23333342 -6.4281268e-13  3.53526e-13     57.10648     57.10648    -98.02348    -98.02348 1.4174748e-13 
       0.263      263    4143.0751    0.2323942 -8.6657437e-13 4.6255532e-13     57.10648     57.10648    -98.02404    -98.02404 1.7728322e-13 
       0.264      264    4143.0751   0.23144102 -7.1005084e-13 -6.6976167e-14     57.10648     57.10648   -98.024609   -98.024609 2.3442555e-14 
       0.265      265    4143.0751   0.23051128 -6.2031238e-13 6.9147717e-14     57.10648     57.10648   -98.025163   -98.025163 6.2816227e-14 
       0.266      266    4143.0751   0.22956965 -5.3572672e-13 4.5151847e-13     57.10648     57.10648   -98.025724   -98.025724 1.9183852e-13 
       0.267      267    4143.0751   0.22862585 -7.5657925e-13 3.9660249e-13     57.10648     57.10648   -98.026285   -98.026285 2.9579427e-13 
       0.268      268    4143.0751   0.22768707 -3.8048997e-13 1.5016521e-13     57.10648     57.10648   -98.026845   -98.026845 2.1560935e-13 
       0.269      269    4143.0751   0.22674073 -2.2137003e-13 -2.1426037e-13     57.10648     57.10648    -98.02741    -98.02741 1.7650748e-13 
        0.27      270    4143.0751   0.22579258 -8.248658e-13 -8.1206935e-14     57.10648     57.10648   -98.027975   -98.027975 1.6796144e-14 
       0.271      271    4143.0751   0.22486256 -9.4628815e-13 -4.8996804e-14     57.10648     57.10648   -98.028528   -98.028528 2.2134148e-13 
       0.272      272    4143.0751    0.2239191 -8.2417506e-13 -1.8773254e-13     57.10648     57.10648    -98.02909    -98.02909 -6.5676101e-14 
       0.273      273    4143.0751   0.22296354 -1.0415552e-12 -3.1672504e-13     57.10648     57.10648    -98.02966    -98.02966 4.9136693e-14 
       0.274      274    4143.0751   0.22203047 -1.1771862e-12 -5.1768858e-14     57.10648     57.10648   -98.030217   -98.030217 9.6289604e-14 
       0.275      275    4143.0751   0.22107637 -6.4601182e-13 3.7113761e-14     57.10648     57.10648   -98.030785   -98.030785 4.1295631e-14 
       0.276      276    4143.0751   0.22013147 -5.0578975e-13 -2.8505038e-13     57.10648     57.10648   -98.031347   -98.031347 2.1115567e-13 
       0.277      277    4143.0751   0.21919588 -7.8587176e-13 -2.6967069e-13     57.10648     57.10648   -98.031904   -98.031904 1.4580496e-13 
       0.278      278    4143.0751   0.21823327 -6.8486699e-13 -3.9596146e-14     57.10648     57.10648   -98.032479   -98.032479 6.6457194e-14 
       0.279      279    4143.0751   0.21728749 -7.4104612e-13 -2.4222567e-13     57.10648     57.10648   -98.033043   -98.033043 1.1440127e-13 
        0.28      280    4143.0751   0.21634276 -7.610738e-13 -5.2394632e-13     57.10648     57.10648   -98.033605   -98.033605 9.8864919e-14 
       0.281      281    4143.0751   0.21539078 -8.1262872e-13 -2.9706059e-13     57.10648     57.10648   -98.034172   -98.034172 1.0987418e-13 
       0.282      282    4143.0751   0.21444631 -9.1664636e-13 -6.6234551e-13     57.10648     57.10648   -98.034734   -98.034734 -1.3684835e-15 
       0.283      283    4143.0751   0.21349588 -9.9247635e-13 -5.7695469e-13     57.10648     57.10648   -98.035302   -98.035302 3.1210497e-14 
       0.284      284    4143.0751   0.21253562 -6.2938837e-13 -1.6704772e-13     57.10648     57.10648   -98.035875   -98.035875 3.1215632e-14 
       0.285      285    4143.0751   0.21158879 -3.9015656e-13 1.6917837e-13     57.10648     57.10648   -98.036438   -98.036438 1.5829731e-13 
       0.286      286    4143.0751   0.21064696 -2.1226782e-13 -3.3115847e-13     57.10648     57.10648   -98.036998   -98.036998 1.5558389e-13 
       0.287      287    4143.0751    0.2096811 -5.8279044e-13 -2.2525275e-14     57.10648     57.10648   -98.037574   -98.037574 3.2570004e-14 
       0.288      288    4143.0751   0.20873236 -6.0718217e-13 3.9813207e-13     57.10648     57.10648    -98.03814    -98.03814 1.4121736e-13 
       0.289      289    4143.0751   0.20778017 -6.4964868e-13 3.2173983e-13     57.10648     57.10648   -98.038708   -98.038708 3.4247077e-14 
        0.29      290    4143.0751   0.20682059 -6.298804e-13 2.7499293e-13     57.10648     57.10648   -98.039279   -98.039279 -1.0825287e-14 
       0.291      291    4143.0751   0.20588415 -5.9056458e-13 2.9171259e-13     57.10648     57.10648   -98.039836   -98.039836 3.3669319e-14 
       0.292      292    4143.0751   0.20492002 -6.2277743e-13 4.3743081e-13     57.10648     57.10648   -98.040411   -98.040411 -5.5256636e-14 
       0.293      293    4143.0751   0.20395456 -7.4531345e-13 6.5939211e-13     57.10648     57.10648   -98.040988   -98.040988 3.8764674e-14 
       0.294      294    4143.0751   0.20300697 -7.0995198e-13 1.0390638e-12     57.10648     57.10648   -98.041552   -98.041552 6.7033885e-15 
       0.295      295    4143.0751   0.20204994 -4.3840379e-13 8.8974106e-13     57.10648     57.10648   -98.042121   -98.042121 -9.4492704e-14 
       0.296      296    4143.0751   0.20109472 -3.7676291e-13 2.5316981e-13     57.10648     57.10648    -98.04269    -98.04269 3.5312295e-14 
       0.297      297    4143.0751   0.20013886 -3.8148013e-13  7.18688e-13     57.10648     57.10648    -98.04326    -98.04326 2.0895712e-14 
       0.298      298    4143.0751   0.19917322 -8.8142406e-13 1.2309573e-12     57.10648     57.10648   -98.043837   -98.043837 6.5118694e-15 
       0.299      299    4143.0751   0.19821053 -1.4424607e-12 1.088661e-12     57.10648     57.10648    -98.04441    -98.04441 1.4063073e-13 
         0.3      300    4143.0751   0.19726517 -1.3921678e-12 6.7259315e-13     57.10648     57.10648   -98.044972   -98.044972 1.5649754e-13 
       0.301      301    4143.0751   0.19630135 -4.9686463e-13 4.7944044e-13     57.10648     57.10648   -98.045546   -98.045546 9.7185127e-14 
       0.302      302    4143.0751   0.19533665 -1.4370415e-13 2.2271439e-13     57.10648     57.10648   -98.046122   -98.046122 3.0434139e-13 
       0.303      303    4143.0751   0.19438411 -3.4466996e-13 6.8671483e-13     57.10648     57.10648    -98.04669    -98.04669 7.9530108e-14 
       0.304      304    4143.0751   0.19341407 -2.3491706e-13 1.2626124e-12     57.10648     57.10648   -98.047268   -98.047268 -5.6386369e-15 
       0.305      305    4143.0751   0.19246456 -3.355365e-13 1.0999052e-12     57.10648     57.10648   -98.047833   -98.047833 5.5642893e-14 
       0.306      306    4143.0751   0.19150606 -6.2490066e-13 5.008912e-13     57.10648     57.10648   -98.048404   -98.048404 7.5814339e-14 
       0.307      307    4143.0751   0.19052859 -2.6460266e-13 4.3925971e-13     57.10648     57.10648   -98.048987   -98.048987 9.5897852e-15 
       0.308      308    4143.0751   0.18957168 -3.5967976e-13 4.1818141e-13     57.10648     57.10648   -98.049558   -98.049558 -7.6626813e-14 
       0.309      309    4143.0751   0.18860923 -9.1117458e-13 2.0878212e-14     57.10648     57.10648   -98.050131   -98.050131 -1.1597103e-13 
        0.31      310    4143.0751   0.18764381 -8.1034825e-13 9.3387513e-14     57.10648     57.10648   -98.050705   -98.050705 8.1400146e-14 
       0.311      311    4143.0751   0.18668318 -5.7084816e-13 1.6842042e-13     57.10648     57.10648   -98.051278   -98.051278 1.4339036e-13 
       0.312      312    4143.0751   0.18571603 -2.8021967e-13 4.7419771e-13     57.10648     57.10648   -98.051855   -98.051855 4.9835239e-14 
       0.313      313    4143.0751   0.18474308 -9.8756507e-14 7.4411722e-13     57.10648     57.10648   -98.052435   -98.052435 2.1152064e-14 
       0.314      314    4143.0751   0.18378669 -3.0879944e-13 1.2146767e-12     57.10648     57.10648   -98.053004   -98.053004 1.3606479e-13 
       0.315      315    4143.0751   0.18282749 -2.9251319e-13 8.4323216e-13     57.10648     57.10648   -98.053575   -98.053575 1.0196801e-13 
       0.316      316    4143.0751   0.18185169 -1.7825493e-13 6.4100308e-13     57.10648     57.10648   -98.054157   -98.054157 1.8005968e-13 
       0.317      317    4143.0751   0.18089054 3.4562099e-15 6.7406596e-13     57.10648     57.10648   -98.054731   -98.054731 2.7009656e-13 
       0.318      318    4143.0751   0.17991624 -3.5271453e-13 5.4213442e-13     57.10648     57.10648   -98.055311   -98.055311 2.0731862e-13 
       0.319      319    4143.0751   0.17894879 -1.0416283e-12 4.9358805e-13     57.10648     57.10648   -98.055886   -98.055886 1.8618684e-13 
        0.32      320    4143.0751   0.17799218 -1.012385e-12 6.8464547e-13     57.10648     57.10648   -98.056456   -98.056456 5.3100813e-14 
       0.321      321    4143.0751   0.17701105 -3.6296646e-13 7.061094e-13     57.10648     57.10648   -98.057042   -98.057042 1.1193408e-13 
       0.322      322    4143.0751   0.17604362 -2.2115611e-13 5.0567193e-13     57.10648     57.10648   -98.057619   -98.057619 1.9559481e-15 
       0.323      323    4143.0751   0.17507968 -5.0164435e-13 3.0496516e-13     57.10648     57.10648   -98.058193   -98.058193 3.1726575e-15 
       0.324      324    4143.0751   0.17410741 -8.3708237e-13 4.442238e-13     57.10648     57.10648   -98.058771   -98.058771 3.3881224e-14 
       0.325      325    4143.0751   0.17314039 -7.6471927e-13 2.029609e-13     57.10648     57.10648   -98.059347   -98.059347 8.8856721e-14 
       0.326      326    4143.0751   0.17216907 -7.3956019e-13 -1.9683678e-13     57.10648     57.10648   -98.059927   -98.059927 5.2367201e-14 
       0.327      327    4143.0751   0.17119208 -1.1000185e-12 -1.0906505e-13     57.10648     57.10648    -98.06051    -98.06051 -5.670222e-14 
       0.328      328    4143.0751   0.17022396 -1.1750224e-12 1.9020153e-14     57.10648     57.10648   -98.061086   -98.061086 1.5623882e-13 
       0.329      329    4143.0751   0.16926086 -1.2609272e-12 1.1737009e-13     57.10648     57.10648   -98.061659   -98.061659 -4.283422e-14 
        0.33      330    4143.0751    0.1682793 -1.084669e-12 4.746729e-13     57.10648     57.10648   -98.062244   -98.062244 1.430627e-14 
       0.331      331    4143.0751   0.16730949 -6.9662903e-13 4.2692686e-13     57.10648     57.10648   -98.062823   -98.062823 1.4666151e-13 
       0.332      332    4143.0751   0.16633827 -6.143467e-13 -3.2230123e-14     57.10648     57.10648   -98.063402   -98.063402 4.6405147e-14 
       0.333      333    4143.0751   0.16535794 -9.5639993e-13 -4.1399696e-13     57.10648     57.10648   -98.063985   -98.063985 4.9917161e-14 
       0.334      334    4143.0751   0.16439649 -1.4688142e-12 -3.7278083e-13     57.10648     57.10648   -98.064557   -98.064557 1.9950619e-13 
       0.335      335    4143.0751   0.16341454 -1.3784559e-12 1.8046912e-13     57.10648     57.10648   -98.065143   -98.065143 -2.8313597e-14 
       0.336      336    4143.0751   0.16243381 -1.1839311e-12 -2.4880633e-13     57.10648     57.10648   -98.065728   -98.065728 1.8535508e-13 
       0.337      337    4143.0751    0.1614686 -9.5939831e-13 -6.9877683e-13     57.10648     57.10648   -98.066303   -98.066303 -5.5289642e-14 
       0.338      338    4143.0751    0.1604917 -1.0449278e-12 -7.1962413e-13     57.10648     57.10648   -98.066885   -98.066885 1.1784091e-13 
       0.339      339    4143.0751   0.15951902 -1.0445652e-12 -4.1855467e-13     57.10648     57.10648   -98.067464   -98.067464 2.0694246e-13 
        0.34      340    4143.0751   0.15854407 -1.6125479e-12 -3.0705108e-13     57.10648     57.10648   -98.068045   -98.068045 1.8262894e-14 
       0.341      341    4143.0751   0.15756016 -1.5436711e-12 -1.1830518e-14     57.10648     57.10648   -98.068632   -98.068632 -1.0037759e-13 
       0.342      342    4143.0751   0.15658134 -7.9377892e-13 2.5339492e-13     57.10648     57.10648   -98.069215   -98.069215 6.2939201e-14 
       0.343      343    4143.0751   0.15561523 -4.1972496e-13 -7.0550099e-14     57.10648     57.10648    -98.06979    -98.06979 8.5431503e-14 
       0.344      344    4143.0751   0.15463472 -9.0387396e-13 -1.7389425e-13     57.10648     57.10648   -98.070374   -98.070374 -1.3532101e-13 
       0.345      345    4143.0751   0.15365225 -1.3194702e-12 -2.5082313e-13     57.10648     57.10648    -98.07096    -98.07096 -4.0258425e-14 
       0.346      346    4143.0751   0.15268094 -1.2985526e-12 -5.9924531e-13     57.10648     57.10648    -98.07154    -98.07154 1.0701234e-13 
       0.347      347    4143.0751   0.15169685 -9.9201797e-13 -6.8251314e-13     57.10648     57.10648   -98.072126   -98.072126 8.6031747e-14 
       0.348      348    4143.0751   0.15073398 -5.3343312e-13 -1.2693734e-13     57.10648     57.10648   -98.072698   -98.072698 1.0969794e-14 
       0.349      349    4143.0751   0.14977865 -3.6507666e-13 -1.2454722e-13     57.10648     57.10648   -98.073268   -98.073268 7.1762525e-14 
        0.35      350    4143.0751   0.14883965 -4.6346172e-13 -8.0537993e-14     57.10648     57.10648   -98.073828   -98.073828 6.1966264e-14 
       0.351      351    4143.0751   0.14797505 -5.8691233e-13 -2.462484e-13     57.10648     57.10648   -98.074344   -98.074344 1.6929388e-13 
       0.352      352    4143.0751    0.1472004 -6.2437184e-13 -2.2295267e-14     57.10648     57.10648   -98.074805   -98.074805 1.4301066e-13 
       0.353      353    4143.0751   0.14657086 -6.8971822e-13 -7.236231e-15     57.10648     57.10648   -98.075179   -98.075179 -1.3588953e-15 
       0.354      354    4143.0751   0.14611117 -4.4476801e-13 1.3709975e-13     57.10648     57.10648   -98.075453   -98.075453 1.7181634e-13 
       0.355      355    4143.0751   0.14580145 3.0273588e-14 4.5019447e-15     57.10648     57.10648   -98.075638   -98.075638 9.3906335e-14 
       0.356      356    4143.0751   0.14560695 5.1941231e-13 -7.2490992e-14     57.10648     57.10648   -98.075754   -98.075754 1.2768514e-15 
       0.357      357    4143.0751   0.14547545 1.2529029e-13 5.9661319e-14     57.10648     57.10648   -98.075832   -98.075832 -1.4037404e-13 
Loop time of 18.8472 on 128 procs for 357 steps with 360800 atoms

94.6% CPU use with 128 MPI tasks x 1 OpenMP threads

Minimization stats:
  Stopping criterion = energy tolerance
  Energy initial, next-to-last, final = 
     -1486645.77951318  -1486647.82549146  -1486647.82549146
  Force two-norm initial, final = 7.1080974 5.2096822e-05
  Force max component initial, final = 0.19826945 3.9950750e-07
  Final line search alpha, max atom move = 1.0000000 3.9950750e-07
  Iterations, force evaluations = 357 714

MPI task timing breakdown:
Section |  min time  |  avg time  |  max time  |%varavg| %total
---------------------------------------------------------------
Pair    | 0.58056    | 2.6047     | 6.901      | 154.7 | 13.82
Neigh   | 0          | 0          | 0          |   0.0 |  0.00
Comm    | 0.023101   | 0.7038     | 2.2249     | 113.0 |  3.73
Output  | 7.3085     | 7.4049     | 7.4479     |   1.5 | 39.29
Modify  | 0          | 0          | 0          |   0.0 |  0.00
Other   |            | 8.134      |            |       | 43.16

Nlocal:        2818.75 ave        9200 max           0 min
Histogram: 88 0 0 0 0 0 0 0 1 39
Nghost:        3899.30 ave       13317 max           0 min
Histogram: 87 1 0 0 0 0 2 0 0 38
Neighs:         0.00000 ave           0 max           0 min
Histogram: 128 0 0 0 0 0 0 0 0 0
FullNghs:      472488.0 ave  1.5456e+06 max           0 min
Histogram: 88 0 0 0 0 0 0 1 0 39

Total # of neighbors = 60478400
Ave neighs/atom = 167.62306
Neighbor list builds = 0
Dangerous builds = 0
Setting up Verlet run ...
  Unit style    : metal
  Current step  : 357
  Time step     : 0.001
4143.075124 57.10648 0.145475450219357
Per MPI rank memory allocation (min/avg/max) = 2.046 | 3.215 | 5.894 Mbytes
Time Step Lx Pxx Pxy Pxz Ly Lz Pyy Pzz Pyz 
           0      357    4143.0751   0.14547545 7.3897396e-14 4.0636881e-14     57.10648     57.10648   -98.075832   -98.075832 -1.5767819e-13 
4143.075124 57.10648 0.145475449985203
       0.001      358    4143.0751   0.14547545 3.3120233e-13 -5.7101898e-15     57.10648     57.10648   -98.075832   -98.075832 6.5441067e-14 
4143.075124 57.10648 0.145475449294089
       0.002      359    4143.0751   0.14547545 2.6932549e-13 1.6470707e-13     57.10648     57.10648   -98.075832   -98.075832 -7.3870942e-14 
4143.13727059296 57.10648 0.145473266031968
       0.003      360    4143.1373   0.14547327 1.9415629e-13 1.9246436e-14     57.10648     57.10648   -98.074361   -98.074361 -5.5989933e-15 
4143.13727059296 57.10648 -11.1833677321076
       0.004      361    4143.1373   -11.183368 1.7052523e-13 3.9018898e-14     57.10648     57.10648   -104.82874   -104.82874 1.1563755e-13 
4143.13727059296 57.10648 -11.183341932661
       0.005      362    4143.1373   -11.183342 2.8466809e-13 -1.0448161e-13     57.10648     57.10648   -104.82873   -104.82873 5.440279e-14 
4143.13727059296 57.10648 -11.183290349579
       0.006      363    4143.1373    -11.18329 2.2954197e-13 -3.2907526e-14     57.10648     57.10648   -104.82869   -104.82869 -8.8804462e-15 
4143.13727059296 57.10648 -11.1832130176749
       0.007      364    4143.1373   -11.183213 1.9427341e-13 -9.0776889e-14     57.10648     57.10648   -104.82863   -104.82863 -5.1175946e-14 
4143.13727059296 57.10648 -11.1831099890942
       0.008      365    4143.1373    -11.18311 3.7652979e-13 -9.2079403e-14     57.10648     57.10648   -104.82856   -104.82856 1.318434e-13 
4143.13727059296 57.10648 -11.1829813332663
       0.009      366    4143.1373   -11.182981 3.814123e-13 -2.7504153e-14     57.10648     57.10648   -104.82846   -104.82846 -2.2430873e-13 
4143.13727059296 57.10648 -11.1828271368324
        0.01      367    4143.1373   -11.182827 5.4820088e-13 -7.9051519e-14     57.10648     57.10648   -104.82835   -104.82835 1.8481302e-15 
4143.13727059296 57.10648 -11.1826475034773
       0.011      368    4143.1373   -11.182648 4.3227381e-13 -1.540352e-13     57.10648     57.10648   -104.82822   -104.82822 -1.7551643e-13 
4143.13727059296 57.10648 -11.1824425538089
       0.012      369    4143.1373   -11.182443 5.5950684e-13 6.2314408e-14     57.10648     57.10648   -104.82807   -104.82807 1.7382029e-14 
4143.3444326355 57.10648 -11.1816533286095
       0.013      370    4143.3444   -11.181653 5.0660838e-13 -1.698156e-13     57.10648     57.10648   -104.82266   -104.82266 4.3627227e-14 
4143.3444326355 57.10648 -48.9491305473542
       0.014      371    4143.3444   -48.949131 4.4575063e-13 -1.4603925e-13     57.10648     57.10648   -127.33568   -127.33568 -2.7949659e-14 
4143.3444326355 57.10648 -48.948764430256
       0.015      372    4143.3444   -48.948764 3.5880107e-13 7.6563004e-15     57.10648     57.10648   -127.33541   -127.33541 -3.788938e-14 
4143.3444326355 57.10648 -48.9482876610879
       0.016      373    4143.3444   -48.948288 5.0867135e-13 3.5804649e-14     57.10648     57.10648   -127.33506   -127.33506 3.2903738e-14 
4143.3444326355 57.10648 -48.9477005587632
       0.017      374    4143.3444   -48.947701 2.739709e-13 -9.5345616e-14     57.10648     57.10648   -127.33464   -127.33464 5.6681679e-14 
4143.3444326355 57.10648 -48.9470035157961
       0.018      375    4143.3444   -48.947004 2.9940868e-13 6.0016288e-14     57.10648     57.10648   -127.33413   -127.33413 -1.3164773e-14 
4143.3444326355 57.10648 -48.946196997734
       0.019      376    4143.3444   -48.946197 5.011473e-13 -1.4427244e-13     57.10648     57.10648   -127.33355   -127.33355 -4.1776679e-14 
4143.3444326355 57.10648 -48.9452815425876
        0.02      377    4143.3444   -48.945282 3.5669519e-13 1.2193677e-13     57.10648     57.10648   -127.33288   -127.33288 -5.6564451e-14 
4143.3444326355 57.10648 -48.9442577600948
       0.021      378    4143.3444   -48.944258 5.3979633e-13 9.4004352e-14     57.10648     57.10648   -127.33214   -127.33214 2.3879754e-14 
4143.3444326355 57.10648 -48.9431263309206
       0.022      379    4143.3444   -48.943126 4.6651463e-13 1.8751188e-13     57.10648     57.10648   -127.33132   -127.33132 1.0834564e-13 
4143.55160503639 57.10648 -48.9394409725618
       0.023      380    4143.5516   -48.939441 3.134118e-13 1.3467152e-13     57.10648     57.10648   -127.32405   -127.32405 9.0225904e-14 
4143.55160503639 57.10648 -86.7144267699784
       0.024      381    4143.5516   -86.714427 3.8154478e-13 6.8000335e-14     57.10648     57.10648   -149.83471   -149.83471 1.0289911e-15 
4143.55160503639 57.10648 -86.7128907316747
       0.025      382    4143.5516   -86.712891 5.143143e-13 -8.9115447e-14     57.10648     57.10648    -149.8336    -149.8336 1.3097999e-15 
4143.55160503639 57.10648 -86.711164421807
       0.026      383    4143.5516   -86.711164 2.3045823e-13 -1.8845701e-13     57.10648     57.10648   -149.83235   -149.83235 -4.1560382e-14 
4143.55160503639 57.10648 -86.7092489781068
       0.027      384    4143.5516   -86.709249 4.1746789e-13 -3.5493883e-15     57.10648     57.10648   -149.83096   -149.83096 1.6171464e-14 
4143.55160503639 57.10648 -86.7071456605491
       0.028      385    4143.5516   -86.707146 3.0122233e-13 4.7668689e-14     57.10648     57.10648   -149.82944   -149.82944 -2.9552858e-14 
4143.55160503639 57.10648 -86.704855849744
       0.029      386    4143.5516   -86.704856 3.5323226e-13 -1.1671662e-13     57.10648     57.10648   -149.82779   -149.82779 8.3528579e-14 
4143.55160503639 57.10648 -86.7023810451128
        0.03      387    4143.5516   -86.702381 5.3688414e-13 -1.8191162e-13     57.10648     57.10648     -149.826     -149.826 3.3432001e-14 
4143.55160503639 57.10648 -86.6997228629194
       0.031      388    4143.5516   -86.699723 3.9234786e-13 -5.792914e-14     57.10648     57.10648   -149.82408   -149.82408 -9.7469905e-15 
4143.55160503639 57.10648 -86.6968830341709
       0.032      389    4143.5516   -86.696883 5.1363563e-13 -1.4421125e-13     57.10648     57.10648   -149.82203   -149.82203 5.8372374e-14 
4143.75878779617 57.10648 -86.6895288175251
       0.033      390    4143.7588   -86.689529 5.2672413e-13 -1.6836427e-13     57.10648     57.10648   -149.81236   -149.81236 -7.440169e-16 
4143.75878779617 57.10648 -124.471255495138
       0.034      391    4143.7588   -124.47126 3.6584641e-13 -4.7330109e-14     57.10648     57.10648   -172.32013   -172.32013 -1.8496779e-13 
4143.75878779617 57.10648 -124.467795243504
       0.035      392    4143.7588    -124.4678 5.0208053e-13 5.0203594e-14     57.10648     57.10648   -172.31763   -172.31763 -1.7124538e-13 
4143.75878779617 57.10648 -124.464075285725
       0.036      393    4143.7588   -124.46408 4.9107991e-13 2.2655482e-14     57.10648     57.10648   -172.31496   -172.31496 4.290219e-14 
4143.75878779617 57.10648 -124.460098009084
       0.037      394    4143.7588    -124.4601 4.3370336e-13 -1.6088693e-13     57.10648     57.10648    -172.3121    -172.3121 -6.931337e-14 
4143.75878779617 57.10648 -124.455865958109
       0.038      395    4143.7588   -124.45587 6.1000234e-13 6.268417e-14     57.10648     57.10648   -172.30906   -172.30906 -1.119893e-13 
4143.75878779617 57.10648 -124.451381831297
       0.039      396    4143.7588   -124.45138 2.5875735e-13 -3.0421604e-13     57.10648     57.10648   -172.30584   -172.30584 -7.3384359e-15 
4143.75878779617 57.10648 -124.446648477595
        0.04      397    4143.7588   -124.44665 2.913479e-13 -6.8969806e-14     57.10648     57.10648   -172.30244   -172.30244 -6.1133979e-14 
4143.75878779617 57.10648 -124.441668892727
       0.041      398    4143.7588   -124.44167 3.9126648e-13 -5.6779205e-14     57.10648     57.10648   -172.29887   -172.29887 -7.774819e-14 
4143.75878779617 57.10648 -124.436446215347
       0.042      399    4143.7588   -124.43645 2.019607e-13 -1.7238433e-13     57.10648     57.10648   -172.29513   -172.29513 -2.5465577e-14 
4143.96598091535 57.10648 -124.424762329361
       0.043      400     4143.966   -124.42476 1.7782674e-13 -1.2273151e-13     57.10648     57.10648    -172.2826    -172.2826 1.589343e-13 
4143.96598091535 57.10648 -162.212575322729
       0.044      401     4143.966   -162.21258 1.608647e-13 -1.6043874e-13     57.10648     57.10648   -194.78704   -194.78704 -6.445893e-14 
4143.96598091535 57.10648 -162.206555889308
       0.045      402     4143.966   -162.20656 1.6656786e-13 1.6291102e-14     57.10648     57.10648   -194.78274   -194.78274 -3.6420196e-14 
4143.96598091535 57.10648 -162.200221144495
       0.046      403     4143.966   -162.20022 2.0183339e-13 -2.4735179e-13     57.10648     57.10648   -194.77822   -194.77822 -5.0347486e-14 
4143.96598091535 57.10648 -162.193574999083
       0.047      404     4143.966   -162.19357 7.8169397e-14 -2.9196867e-14     57.10648     57.10648   -194.77348   -194.77348 1.0229109e-13 
4143.96598091535 57.10648 -162.186621538376
       0.048      405     4143.966   -162.18662 9.1288469e-14 2.8875266e-14     57.10648     57.10648   -194.76852   -194.76852 -1.33922e-13 
4143.96598091535 57.10648 -162.179365017003
       0.049      406     4143.966   -162.17937 3.7553213e-14 1.7070617e-14     57.10648     57.10648   -194.76336   -194.76336 7.5500754e-14 
4143.96598091535 57.10648 -162.171809853501
        0.05      407     4143.966   -162.17181 -6.6517874e-14 -3.5821353e-14     57.10648     57.10648   -194.75799   -194.75799 8.4795558e-14 
4143.96598091535 57.10648 -162.163960624769
       0.051      408     4143.966   -162.16396 1.3991661e-14 5.155896e-14     57.10648     57.10648   -194.75242   -194.75242 -9.8854229e-15 
4143.96598091535 57.10648 -162.155822060285
       0.052      409     4143.966   -162.15582 5.660901e-14 1.611729e-13     57.10648     57.10648   -194.74664   -194.74664 1.0327189e-13 
4144.17318439444 57.10648 -162.139291868894
       0.053      410    4144.1732   -162.13929 1.5710967e-13 3.2730982e-14     57.10648     57.10648   -194.73094   -194.73094 -1.3942182e-13 
4144.17318439444 57.10648 -199.932679258971
       0.054      411    4144.1732   -199.93268 -6.8337458e-14 -8.2624733e-14     57.10648     57.10648   -217.23172   -217.23172 9.4659046e-14 
4144.17318439444 57.10648 -199.92361399918
       0.055      412    4144.1732   -199.92361 1.1334272e-13 -5.0663244e-14     57.10648     57.10648   -217.22531   -217.22531 1.7588101e-13 
4144.17318439444 57.10648 -199.914193581791
       0.056      413    4144.1732   -199.91419 -1.1497865e-13 -5.4096572e-14     57.10648     57.10648   -217.21866   -217.21866 5.5980776e-14 
4144.17318439444 57.10648 -199.904423530327
       0.057      414    4144.1732   -199.90442 -2.2193899e-13 1.0612096e-13     57.10648     57.10648   -217.21176   -217.21176 -5.6881313e-14 
4144.17318439444 57.10648 -199.894309541149
       0.058      415    4144.1732   -199.89431 -2.6692276e-13 1.435079e-13     57.10648     57.10648   -217.20464   -217.20464 1.3616647e-13 
4144.17318439444 57.10648 -199.883857476442
       0.059      416    4144.1732   -199.88386 -8.7333393e-14 1.7599961e-13     57.10648     57.10648   -217.19728   -217.19728 1.2044812e-13 
4144.17318439444 57.10648 -199.873073356996
        0.06      417    4144.1732   -199.87307 -3.0685749e-14 8.5767959e-14     57.10648     57.10648    -217.1897    -217.1897 -3.7456688e-14 
4144.17318439444 57.10648 -199.861963354826
       0.061      418    4144.1732   -199.86196 1.5534138e-14 5.3007935e-14     57.10648     57.10648    -217.1819    -217.1819 -1.0604953e-13 
4144.17318439444 57.10648 -199.85053378567
       0.062      419    4144.1732   -199.85053 -1.1552876e-13 -5.8189405e-14     57.10648     57.10648   -217.17389   -217.17389 -3.0787635e-14 
4144.38039823396 57.10648 -199.82879941151
       0.063      420    4144.3804    -199.8288 -6.3256884e-14 -1.0873759e-13     57.10648     57.10648   -217.15481   -217.15481 6.147049e-14 
4144.38039823396 57.10648 -237.627411421847
       0.064      421    4144.3804   -237.62741 -2.0667783e-13 2.5421792e-14     57.10648     57.10648   -239.65176   -239.65176 -8.7581949e-14 
4144.38039823396 57.10648 -237.61497295754
       0.065      422    4144.3804   -237.61497 -3.5294176e-13 1.7475029e-13     57.10648     57.10648   -239.64307   -239.64307 8.7835754e-15 
4144.38039823396 57.10648 -237.602155312693
       0.066      423    4144.3804   -237.60216 -1.5368531e-13 8.4775566e-14     57.10648     57.10648   -239.63413   -239.63413 3.7816791e-14 
4144.38039823396 57.10648 -237.588965529151
       0.067      424    4144.3804   -237.58897 -3.0406988e-13 2.0059672e-13     57.10648     57.10648   -239.62494   -239.62494 -5.340381e-14 
4144.38039823396 57.10648 -237.575410802756
       0.068      425    4144.3804   -237.57541 -2.8635582e-13 4.378581e-14     57.10648     57.10648   -239.61552   -239.61552 -1.1295572e-15 
4144.38039823396 57.10648 -237.561498474821
       0.069      426    4144.3804    -237.5615 -3.861311e-13 5.6248647e-14     57.10648     57.10648   -239.60585   -239.60585 3.9136734e-15 
4144.38039823396 57.10648 -237.547236023457
        0.07      427    4144.3804   -237.54724 -3.9226628e-13 1.1585719e-13     57.10648     57.10648   -239.59595   -239.59595 2.7533433e-14 
4144.38039823396 57.10648 -237.532631054742
       0.071      428    4144.3804   -237.53263 -1.4967592e-13 5.3523951e-15     57.10648     57.10648   -239.58584   -239.58584 -1.907277e-14 
4144.38039823396 57.10648 -237.517691293821
       0.072      429    4144.3804   -237.51769 -2.0045922e-13 -2.2745426e-14     57.10648     57.10648    -239.5755    -239.5755 3.2384626e-14 
4144.58762243443 57.10648 -237.490549751584
       0.073      430    4144.5876   -237.49055 -1.2601494e-13 9.7752501e-14     57.10648     57.10648   -239.55298   -239.55298 2.6736181e-14 
4144.58762243443 57.10648 -275.294186717087
       0.074      431    4144.5876   -275.29419 -1.6791259e-13 -2.6153642e-14     57.10648     57.10648   -262.04603   -262.04603 4.8944048e-14 
4144.58762243443 57.10648 -275.278199618691
       0.075      432    4144.5876    -275.2782 -3.5324484e-13 -1.4161223e-13     57.10648     57.10648   -262.03502   -262.03502 4.7710809e-14 
4144.58762243443 57.10648 -275.261823476866
       0.076      433    4144.5876   -275.26182 -3.0752619e-13 4.9320659e-14     57.10648     57.10648   -262.02376   -262.02376 -5.1872028e-14 
4144.58762243443 57.10648 -275.245066602591
       0.077      434    4144.5876   -275.24507 -4.2283334e-13 -1.038069e-13     57.10648     57.10648   -262.01225   -262.01225 1.0678671e-13 
4144.58762243443 57.10648 -275.22793742905
       0.078      435    4144.5876   -275.22794 -3.7080048e-13 -8.6275739e-14     57.10648     57.10648   -262.00051   -262.00051 9.0462013e-14 
4144.58762243443 57.10648 -275.210444502073
       0.079      436    4144.5876   -275.21044 -1.9999274e-13 -8.1868094e-15     57.10648     57.10648   -261.98853   -261.98853 -1.7833825e-13 
4144.58762243443 57.10648 -275.192596470555
        0.08      437    4144.5876    -275.1926 -3.1811212e-13 -3.7899787e-14     57.10648     57.10648   -261.97632   -261.97632 3.9559193e-14 
4144.58762243443 57.10648 -275.174402076769
       0.081      438    4144.5876    -275.1744 -3.6195537e-13 -8.1317241e-14     57.10648     57.10648    -261.9639    -261.9639 -4.70716e-14 
4144.58762243443 57.10648 -275.155870146691
       0.082      439    4144.5876   -275.15587 -2.3687121e-13 -1.2536253e-13     57.10648     57.10648   -261.95126   -261.95126 -1.7756645e-13 
4144.79485699637 57.10648 -275.123253073667
       0.083      440    4144.7949   -275.12325 -2.1634122e-13 -1.5305322e-13     57.10648     57.10648   -261.92533   -261.92533 7.6171554e-14 
4144.79485699637 57.10648 -312.931844835911
       0.084      441    4144.7949   -312.93184 -3.6383746e-13 -2.5017953e-13     57.10648     57.10648   -284.41454   -284.41454 -4.5288844e-14 
4144.79485699637 57.10648 -312.912262602702
       0.085      442    4144.7949   -312.91226 -3.1824036e-13 -8.4444113e-14     57.10648     57.10648   -284.40125   -284.40125 -4.7191864e-14 
4144.79485699637 57.10648 -312.892292621761
       0.086      443    4144.7949   -312.89229 -4.7369846e-13 -9.1203687e-15     57.10648     57.10648   -284.38773   -284.38773 -8.4591768e-14 
4144.79485699637 57.10648 -312.871944119203
       0.087      444    4144.7949   -312.87194 -2.9284616e-13 -7.3671152e-14     57.10648     57.10648   -284.37396   -284.37396 -1.7123151e-14 
4144.79485699637 57.10648 -312.851226404331
       0.088      445    4144.7949   -312.85123 -4.9456388e-13 -1.6541186e-13     57.10648     57.10648   -284.35997   -284.35997 -4.4508539e-14 
4144.79485699637 57.10648 -312.830148859813
       0.089      446    4144.7949   -312.83015 -3.7879885e-13 1.1622197e-13     57.10648     57.10648   -284.34575   -284.34575 -1.1694447e-13 
4144.79485699637 57.10648 -312.808720931725
        0.09      447    4144.7949   -312.80872 -3.9514751e-13 -1.1411529e-13     57.10648     57.10648   -284.33132   -284.33132 -6.1103413e-14 
4144.79485699637 57.10648 -312.786952119683
       0.091      448    4144.7949   -312.78695 -3.2832345e-13 -2.2854448e-13     57.10648     57.10648   -284.31669   -284.31669 1.1099171e-13 
4144.79485699637 57.10648 -312.764851966983
       0.092      449    4144.7949   -312.76485 -3.0044711e-13 -5.4633356e-14     57.10648     57.10648   -284.30185   -284.30185 -5.3229906e-14 
4145.0021019203 57.10648 -312.726793320162
       0.093      450    4145.0021   -312.72679 -4.3499715e-13 -2.8823263e-13     57.10648     57.10648   -284.27261   -284.27261 -9.7258315e-14 
4145.0021019203 57.10648 -350.540370683654
       0.094      451    4145.0021   -350.54037 -5.465876e-13 -9.2366967e-15     57.10648     57.10648   -306.75808   -306.75808 4.067635e-14 
4145.0021019203 57.10648 -350.517241749685
       0.095      452    4145.0021   -350.51724 -4.0389898e-13 -1.8145876e-13     57.10648     57.10648   -306.74263   -306.74263 -9.585135e-14 
4145.0021019203 57.10648 -350.493733741388
       0.096      453    4145.0021   -350.49373 -4.5419268e-13 -1.4887276e-13     57.10648     57.10648   -306.72695   -306.72695 -4.9911858e-14 
4145.0021019203 57.10648 -350.469856402468
       0.097      454    4145.0021   -350.46986 -3.412629e-13 3.9795985e-15     57.10648     57.10648   -306.71105   -306.71105 -2.2988282e-14 
4145.0021019203 57.10648 -350.445619520042
       0.098      455    4145.0021   -350.44562 -4.3999295e-13 -5.7678474e-14     57.10648     57.10648   -306.69493   -306.69493 4.5339312e-15 
4145.0021019203 57.10648 -350.421032915053
       0.099      456    4145.0021   -350.42103 -3.8982075e-13 6.2629126e-14     57.10648     57.10648   -306.67861   -306.67861 -1.4814416e-13 
4145.0021019203 57.10648 -350.396106432632
         0.1      457    4145.0021   -350.39611 -5.1509258e-13 -2.0645076e-13     57.10648     57.10648   -306.66208   -306.66208 3.6495524e-14 
4145.0021019203 57.10648 -350.370849932655
       0.101      458    4145.0021   -350.37085 -5.3568639e-13 -4.3273444e-14     57.10648     57.10648   -306.64537   -306.64537 -3.8485533e-14 
4145.0021019203 57.10648 -350.345273280253
       0.102      459    4145.0021   -350.34527 -7.0937868e-13 -3.512497e-14     57.10648     57.10648   -306.62847   -306.62847 1.2570583e-14 
4145.20935720674 57.10648 -350.301870805055
       0.103      460    4145.2094   -350.30187 -4.6251509e-13 -1.4542256e-13     57.10648     57.10648   -306.59606   -306.59606 4.9175399e-14 
4145.20935720674 57.10648 -388.120524142893
       0.104      461    4145.2094   -388.12052 -5.1162262e-13 4.1515658e-15     57.10648     57.10648   -329.07792   -329.07792 1.3108468e-13 
4145.20935720674 57.10648 -388.093952882478
       0.105      462    4145.2094   -388.09395 -1.3447254e-13 -6.6852808e-14     57.10648     57.10648   -329.06044   -329.06044 -9.2635526e-14 
4145.20935720674 57.10648 -388.067014662077
       0.106      463    4145.2094   -388.06701 -3.8911565e-13 -1.9287787e-13     57.10648     57.10648   -329.04275   -329.04275 1.608194e-13 
4145.20935720674 57.10648 -388.039719363713
       0.107      464    4145.2094   -388.03972 -4.0828581e-13 -1.8786511e-13     57.10648     57.10648   -329.02486   -329.02486 -7.6671129e-14 
4145.20935720674 57.10648 -388.012076878014
       0.108      465    4145.2094   -388.01208 -5.0297538e-13 -2.2895266e-13     57.10648     57.10648   -329.00676   -329.00676 4.030882e-14 
4145.20935720674 57.10648 -387.984097095343
       0.109      466    4145.2094    -387.9841 -2.3868775e-13 -2.381884e-13     57.10648     57.10648   -328.98846   -328.98846 6.6751321e-14 
4145.20935720674 57.10648 -387.955789897082
        0.11      467    4145.2094   -387.95579 -4.7028483e-13 -1.6924562e-13     57.10648     57.10648   -328.96998   -328.96998 -2.6877381e-14 
4145.20935720674 57.10648 -387.927165146955
       0.111      468    4145.2094   -387.92717 -4.3307512e-13 -1.4776716e-13     57.10648     57.10648   -328.95132   -328.95132  3.76758e-14 
4145.20935720674 57.10648 -387.898232682473
       0.112      469    4145.2094   -387.89823 -4.3342637e-13 -4.6000046e-14     57.10648     57.10648   -328.93248   -328.93248 3.737398e-14 
4145.4166228562 57.10648 -387.84960934126
       0.113      470    4145.4166   -387.84961 -3.5427978e-13 -3.2942913e-13     57.10648     57.10648   -328.89704   -328.89704 3.7562892e-14 
4145.4166228562 57.10648 -425.673450857747
       0.114      471    4145.4166   -425.67345 -2.0139677e-13 -2.4399665e-13     57.10648     57.10648   -351.37542   -351.37542 1.2104624e-13 
4145.4166228562 57.10648 -425.643559714364
       0.115      472    4145.4166   -425.64356 -1.9705161e-13 -1.5141935e-13     57.10648     57.10648   -351.35606   -351.35606 1.1544194e-13 
4145.4166228562 57.10648 -425.613313655403
       0.116      473    4145.4166   -425.61331 -1.3110068e-14 -2.0065212e-13     57.10648     57.10648   -351.33648   -351.33648 -7.3123485e-14 
4145.4166228562 57.10648 -425.582722392316
       0.117      474    4145.4166   -425.58272 -1.7775008e-13 -2.0209262e-13     57.10648     57.10648   -351.31671   -351.31671 -4.3858588e-14 
4145.4166228562 57.10648 -425.551795619667
       0.118      475    4145.4166    -425.5518 -1.5747256e-13 -1.9300042e-13     57.10648     57.10648   -351.29675   -351.29675 9.6826392e-14 
4145.4166228562 57.10648 -425.520543007408
       0.119      476    4145.4166   -425.52054 -2.0005217e-13 -1.8878421e-13     57.10648     57.10648    -351.2766    -351.2766 -1.7519827e-15 
4145.4166228562 57.10648 -425.488974193231
        0.12      477    4145.4166   -425.48897 -9.885363e-14 -1.8242489e-13     57.10648     57.10648   -351.25628   -351.25628 1.4053283e-13 
4145.4166228562 57.10648 -425.457098775094
       0.121      478    4145.4166    -425.4571 -1.6747382e-13 -2.2541884e-13     57.10648     57.10648   -351.23578   -351.23578 4.9868295e-14 
4145.4166228562 57.10648 -425.424926303795
       0.122      479    4145.4166   -425.42493 -7.5067171e-14 -1.4905157e-13     57.10648     57.10648   -351.21512   -351.21512 8.512735e-14 
4145.6238988692 57.10648 -425.37119718421
       0.123      480    4145.6239    -425.3712 -2.2938918e-13 -7.0307088e-14     57.10648     57.10648   -351.17675   -351.17675 7.6149653e-14 
4145.6238988692 57.10648 -463.200339990736
       0.124      481    4145.6239   -463.20034 -7.089081e-14 -6.248955e-15     57.10648     57.10648   -373.65177   -373.65177 6.2848409e-14 
4145.6238988692 57.10648 -463.167238015991
       0.125      482    4145.6239   -463.16724 -5.3946658e-14 -1.7920456e-14     57.10648     57.10648   -373.63061   -373.63061 -5.4896103e-14 
4145.6238988692 57.10648 -463.133790466283
       0.126      483    4145.6239   -463.13379 7.7813919e-14 3.2717134e-14     57.10648     57.10648   -373.60924   -373.60924 9.5264672e-15 
4145.6238988692 57.10648 -463.100006677858
       0.127      484    4145.6239   -463.10001 -1.2390862e-13 -1.0701564e-13     57.10648     57.10648   -373.58768   -373.58768  2.63549e-14 
4145.6238988692 57.10648 -463.065895958098
       0.128      485    4145.6239    -463.0659 -3.062452e-14 -1.2002053e-14     57.10648     57.10648   -373.56594   -373.56594 -4.957299e-14 
4145.6238988692 57.10648 -463.031467576489
       0.129      486    4145.6239   -463.03147 -9.6084836e-15 -6.3060033e-15     57.10648     57.10648   -373.54402   -373.54402 3.8453748e-14 
4145.6238988692 57.10648 -462.99673075871
        0.13      487    4145.6239   -462.99673 -1.2875917e-13 -1.8091742e-13     57.10648     57.10648   -373.52193   -373.52193 1.4217784e-13 
4145.6238988692 57.10648 -462.961694680951
       0.131      488    4145.6239   -462.96169 -2.7974532e-14 3.7811054e-15     57.10648     57.10648   -373.49967   -373.49967 -1.0120628e-13 
4145.6238988692 57.10648 -462.926368463351
       0.132      489    4145.6239   -462.92637 -3.4750349e-14 -1.4916078e-14     57.10648     57.10648   -373.47725   -373.47725 -9.4965435e-14 
4145.83118524626 57.10648 -462.867617204552
       0.133      490    4145.8312   -462.86762 -2.1023662e-13 -2.7932537e-13     57.10648     57.10648     -373.436     -373.436 4.7693707e-14 
4145.83118524626 57.10648 -500.70214139307
[...]
4161.61531460241 57.10648 -3271.90038127152
       0.901     1258    4161.6153   -3271.9004 2.1549674e-13 3.4597921e-14     57.10648     57.10648   -2022.2515   -2022.2515 -4.762528e-14 
4161.61531460241 57.10648 -3271.611651472
       0.902     1259    4161.6153   -3271.6117 -1.3566452e-14 1.5818668e-13     57.10648     57.10648   -2022.0811   -2022.0811 -1.4190219e-13 
4161.82340057024 57.10648 -3271.15906546659
       0.903     1260    4161.8234   -3271.1591 -5.2018536e-14 9.1379526e-14     57.10648     57.10648   -2021.8095   -2021.8095 -2.0480897e-13 
4161.82340057024 57.10648 -3309.37078505629
       0.904     1261    4161.8234   -3309.3708 1.1741482e-13 -3.8281994e-14     57.10648     57.10648   -2044.0141   -2044.0141 4.5401988e-14 
4161.82340057024 57.10648 -3309.08103327296
       0.905     1262    4161.8234    -3309.081 6.7538091e-14 1.920578e-13     57.10648     57.10648   -2043.8432   -2043.8432 -1.3773316e-13 
4161.82340057024 57.10648 -3308.79092710529
       0.906     1263    4161.8234   -3308.7909 1.9117708e-15 -5.0444881e-14     57.10648     57.10648   -2043.6721   -2043.6721 -5.8982593e-14 
4161.82340057024 57.10648 -3308.50047512799
       0.907     1264    4161.8234   -3308.5005 2.9371868e-14 6.6464645e-15     57.10648     57.10648   -2043.5007   -2043.5007 -1.0577675e-13 
4161.82340057024 57.10648 -3308.20968592715
       0.908     1265    4161.8234   -3308.2097 2.3436176e-14 3.9916477e-14     57.10648     57.10648   -2043.3292   -2043.3292 -1.5553754e-16 
4161.82340057024 57.10648 -3307.91856808996
       0.909     1266    4161.8234   -3307.9186 -8.7908891e-14 1.4400522e-13     57.10648     57.10648   -2043.1575   -2043.1575 -6.15179e-14 
4161.82340057024 57.10648 -3307.62713020945
        0.91     1267    4161.8234   -3307.6271 -7.7868051e-14 -3.2049083e-14     57.10648     57.10648   -2042.9856   -2042.9856 2.3490963e-15 
4161.82340057024 57.10648 -3307.33538087472
       0.911     1268    4161.8234   -3307.3354 8.8405873e-14 1.4480375e-13     57.10648     57.10648   -2042.8135   -2042.8135 -4.2248503e-14 
4161.82340057024 57.10648 -3307.04332865995
       0.912     1269    4161.8234   -3307.0433 -6.5482211e-14 -1.1091586e-14     57.10648     57.10648   -2042.6412   -2042.6412 7.8287485e-14 
4162.03149694264 57.10648 -3306.58564870622
       0.913     1270    4162.0315   -3306.5856 -7.2608862e-15 -3.9239992e-14     57.10648     57.10648   -2042.3666   -2042.3666 -1.3087784e-13 
4162.03149694264 57.10648 -3344.80188922695
       0.914     1271    4162.0315   -3344.8019 -2.249856e-13 -1.0039709e-13     57.10648     57.10648   -2064.5677   -2064.5677 6.2545724e-14 
4162.03149694264 57.10648 -3344.50881359469
       0.915     1272    4162.0315   -3344.5088 -1.0603193e-13 4.8150417e-14     57.10648     57.10648   -2064.3949   -2064.3949 -1.3483887e-13 
4162.03149694264 57.10648 -3344.21538336714
       0.916     1273    4162.0315   -3344.2154 1.4236307e-13 -2.1743865e-13     57.10648     57.10648   -2064.2219   -2064.2219 -9.2176189e-14 
4162.03149694264 57.10648 -3343.92160710173
       0.917     1274    4162.0315   -3343.9216 3.2012255e-14 6.7101935e-14     57.10648     57.10648   -2064.0487   -2064.0487 -1.3421892e-14 
4162.03149694264 57.10648 -3343.62749336366
       0.918     1275    4162.0315   -3343.6275 1.4002498e-14 -1.0396915e-13     57.10648     57.10648   -2063.8752   -2063.8752 4.0228529e-14 
4162.03149694264 57.10648 -3343.33305073042
       0.919     1276    4162.0315   -3343.3331 -1.0135859e-13 -3.4003192e-14     57.10648     57.10648   -2063.7016   -2063.7016 4.0211436e-15 
4162.03149694264 57.10648 -3343.03828778087
        0.92     1277    4162.0315   -3343.0383 1.2452426e-13 -1.666597e-13     57.10648     57.10648   -2063.5278   -2063.5278 -3.5377126e-14 
4162.03149694264 57.10648 -3342.7432130863
       0.921     1278    4162.0315   -3342.7432 -8.4656451e-15 -2.023905e-13     57.10648     57.10648   -2063.3538   -2063.3538 2.5162833e-14 
4162.03149694264 57.10648 -3342.44783520762
       0.922     1279    4162.0315   -3342.4478 -1.0573335e-13 5.1473212e-15     57.10648     57.10648   -2063.1796   -2063.1796 5.6346883e-14 
4162.23960372011 57.10648 -3341.98505925832
       0.923     1280    4162.2396   -3341.9851 -6.9897868e-14 -1.3792241e-13     57.10648     57.10648   -2062.9021   -2062.9021 -1.3706696e-13 
4162.23960372011 57.10648 -3380.20581720591
       0.924     1281    4162.2396   -3380.2058 -2.2937934e-14 -2.6072408e-13     57.10648     57.10648   -2085.0997   -2085.0997 1.8174549e-14 
4162.23960372011 57.10648 -3379.90941402528
       0.925     1282    4162.2396   -3379.9094 -1.0376729e-13 -1.8967736e-13     57.10648     57.10648    -2084.925    -2084.925 -1.0119291e-13 
4162.23960372011 57.10648 -3379.61265590346
       0.926     1283    4162.2396   -3379.6127 -1.9776056e-13 -1.7803635e-13     57.10648     57.10648   -2084.7501   -2084.7501 -6.0792168e-14 
4162.23960372011 57.10648 -3379.31555138549
       0.927     1284    4162.2396   -3379.3156 -1.4383434e-14 -3.6090877e-13     57.10648     57.10648   -2084.5749   -2084.5749 -7.062415e-14 
4162.23960372011 57.10648 -3379.0181090322
       0.928     1285    4162.2396   -3379.0181 -1.5305797e-13 -4.6860635e-13     57.10648     57.10648   -2084.3996   -2084.3996 4.683079e-14 
4162.23960372011 57.10648 -3378.7203374147
       0.929     1286    4162.2396   -3378.7203 -7.1810914e-14 -3.9098662e-13     57.10648     57.10648    -2084.224    -2084.224 1.810314e-14 
4162.23960372011 57.10648 -3378.42224510353
        0.93     1287    4162.2396   -3378.4222 -7.2127652e-14 -3.7758956e-13     57.10648     57.10648   -2084.0483   -2084.0483 3.0606377e-14 
4162.23960372011 57.10648 -3378.12384066431
       0.931     1288    4162.2396   -3378.1238 -8.0311186e-14 -1.9536717e-13     57.10648     57.10648   -2083.8724   -2083.8724 9.5600205e-14 
4162.23960372011 57.10648 -3377.82513265325
       0.932     1289    4162.2396   -3377.8251 -6.4833179e-15 -2.9429749e-13     57.10648     57.10648   -2083.6963   -2083.6963 3.2556061e-14 
4162.44772090318 57.10648 -3377.35725752643
       0.933     1290    4162.4477   -3377.3573 -1.4563134e-13 -6.2058688e-13     57.10648     57.10648   -2083.4158   -2083.4158 -3.5095119e-14 
4162.44772090318 57.10648 -3415.58252088417
       0.934     1291    4162.4477   -3415.5825 -7.5119523e-15 -3.8846619e-13     57.10648     57.10648     -2105.61     -2105.61 2.3483882e-14 
4162.44772090318 57.10648 -3415.28278549202
       0.935     1292    4162.4477   -3415.2828 -1.4808599e-14 -3.7426974e-13     57.10648     57.10648   -2105.4334   -2105.4334 -6.8327392e-14 
4162.44772090318 57.10648 -3414.98269476732
       0.936     1293    4162.4477   -3414.9827 3.5649284e-14 -4.9869263e-13     57.10648     57.10648   -2105.2565   -2105.2565 -9.1080592e-15 
4162.44772090318 57.10648 -3414.6822572526
       0.937     1294    4162.4477   -3414.6823 -1.8182726e-13 -5.8010402e-13     57.10648     57.10648   -2105.0794   -2105.0794 -8.96836e-14 
4162.44772090318 57.10648 -3414.38148151482
       0.938     1295    4162.4477   -3414.3815 -6.0152134e-14 -6.2854721e-13     57.10648     57.10648   -2104.9022   -2104.9022 -7.3686905e-14 
4162.44772090318 57.10648 -3414.08037612588
       0.939     1296    4162.4477   -3414.0804 -1.4040211e-14 -5.6479543e-13     57.10648     57.10648   -2104.7247   -2104.7247 1.6275463e-13 
4162.44772090318 57.10648 -3413.77894965912
        0.94     1297    4162.4477   -3413.7789 -1.1791218e-13 -5.1706908e-13     57.10648     57.10648    -2104.547    -2104.547 -1.5801084e-13 
4162.44772090318 57.10648 -3413.47721068461
       0.941     1298    4162.4477   -3413.4772 -6.3854455e-14 -4.3832345e-13     57.10648     57.10648   -2104.3692   -2104.3692 3.3407564e-14 
4162.44772090318 57.10648 -3413.1751677632
       0.942     1299    4162.4477   -3413.1752 5.5445248e-14 -5.9243148e-13     57.10648     57.10648   -2104.1912   -2104.1912 -1.2675897e-14 
4162.65584849237 57.10648 -3412.70219006635
       0.943     1300    4162.6558   -3412.7022 1.6251822e-13 -5.6820721e-13     57.10648     57.10648   -2103.9078   -2103.9078 -1.6981568e-14 
4162.65584849237 57.10648 -3450.9319446342
       0.944     1301    4162.6558   -3450.9319 6.2694053e-14 -5.6595891e-13     57.10648     57.10648   -2126.0985   -2126.0985 -1.0864852e-13 
4162.65584849237 57.10648 -3450.62887234716
       0.945     1302    4162.6558   -3450.6289 1.5940803e-13 -6.912361e-13     57.10648     57.10648   -2125.9199   -2125.9199 -2.7102812e-14 
4162.65584849237 57.10648 -3450.32544438509
       0.946     1303    4162.6558   -3450.3254 1.7814564e-13 -7.1022608e-13     57.10648     57.10648   -2125.7411   -2125.7411 -4.7211372e-14 
4162.65584849237 57.10648 -3450.02166930185
       0.947     1304    4162.6558   -3450.0217 3.0597594e-13 -5.7516323e-13     57.10648     57.10648   -2125.5622   -2125.5622 -6.9524528e-14 
4162.65584849237 57.10648 -3449.7175556737
       0.948     1305    4162.6558   -3449.7176 1.7611481e-13 -4.8752757e-13     57.10648     57.10648    -2125.383    -2125.383 2.1000723e-14 
4162.65584849237 57.10648 -3449.41311208356
       0.949     1306    4162.6558   -3449.4131 1.0870407e-13 -5.3405652e-13     57.10648     57.10648   -2125.2036   -2125.2036 -1.1453125e-13 
4162.65584849237 57.10648 -3449.1083471164
        0.95     1307    4162.6558   -3449.1083 4.8110364e-15 -5.6875112e-13     57.10648     57.10648    -2125.024    -2125.024 -6.7516473e-14 
4162.65584849237 57.10648 -3448.80326935468
       0.951     1308    4162.6558   -3448.8033 3.2435022e-14 -6.1966234e-13     57.10648     57.10648   -2124.8442   -2124.8442 -9.8660482e-14 
4162.65584849237 57.10648 -3448.4978873722
       0.952     1309    4162.6558   -3448.4979 4.9192258e-14 -5.2990351e-13     57.10648     57.10648   -2124.6643   -2124.6643 -9.6568149e-14 
4162.8639864882 57.10648 -3448.01980442868
       0.953     1310     4162.864   -3448.0198 1.8219122e-13 -5.5925835e-13     57.10648     57.10648   -2124.3779   -2124.3779 -4.465348e-14 
4162.8639864882 57.10648 -3486.25403754252
       0.954     1311     4162.864    -3486.254 1.1329621e-13 -5.8840133e-13     57.10648     57.10648   -2146.5652   -2146.5652 1.6246068e-14 
4162.8639864882 57.10648 -3485.94762455667
       0.955     1312     4162.864   -3485.9476 -7.813591e-14 -5.9111538e-13     57.10648     57.10648   -2146.3847   -2146.3847 9.5635787e-15 
4162.8639864882 57.10648 -3485.64085568216
       0.956     1313     4162.864   -3485.6409 1.7322871e-13 -5.7707561e-13     57.10648     57.10648    -2146.204    -2146.204 1.1480367e-13 
4162.8639864882 57.10648 -3485.33373949398
       0.957     1314     4162.864   -3485.3337 6.1036234e-14 -5.5499137e-13     57.10648     57.10648   -2146.0231   -2146.0231 -1.2337903e-13 
4162.8639864882 57.10648 -3485.02628457782
       0.958     1315     4162.864   -3485.0263 -2.5202801e-16 -6.7654586e-13     57.10648     57.10648   -2145.8419   -2145.8419 -1.710663e-14 
4162.8639864882 57.10648 -3484.71849953513
       0.959     1316     4162.864   -3484.7185 -7.420779e-14 -4.3132781e-13     57.10648     57.10648   -2145.6606   -2145.6606 -4.0379354e-14 
4162.8639864882 57.10648 -3484.41039296795
        0.96     1317     4162.864   -3484.4104 -8.2490588e-14 -4.6589695e-13     57.10648     57.10648   -2145.4791   -2145.4791 -1.1590256e-13 
4162.8639864882 57.10648 -3484.10197347571
       0.961     1318     4162.864    -3484.102 3.3802735e-14 -4.0469668e-13     57.10648     57.10648   -2145.2974   -2145.2974 -1.074754e-13 
4162.8639864882 57.10648 -3483.79324964923
       0.962     1319     4162.864   -3483.7932 -3.3688431e-14 -4.7074578e-13     57.10648     57.10648   -2145.1156   -2145.1156 -7.2066244e-14 
4163.0721348912 57.10648 -3483.31006020896
       0.963     1320    4163.0721   -3483.3101 -1.0842244e-13 -4.6449096e-13     57.10648     57.10648   -2144.8263   -2144.8263 1.1302071e-13 
4163.0721348912 57.10648 -3521.54875829011
       0.964     1321    4163.0721   -3521.5488 -1.2882389e-13 -2.9289747e-13     57.10648     57.10648     -2167.01     -2167.01 -8.5118196e-14 
4163.0721348912 57.10648 -3521.2390023243
       0.965     1322    4163.0721    -3521.239 4.5638005e-14 -4.0985445e-13     57.10648     57.10648   -2166.8276   -2166.8276 -1.3407625e-13 
4163.0721348912 57.10648 -3520.92889043194
       0.966     1323    4163.0721   -3520.9289 -1.0784291e-13 -3.4123223e-13     57.10648     57.10648    -2166.645    -2166.645 4.1793383e-14 
4163.0721348912 57.10648 -3520.61843120499
       0.967     1324    4163.0721   -3520.6184 -1.7672943e-13 -2.54886e-13     57.10648     57.10648   -2166.4622   -2166.4622 -3.469678e-15 
4163.0721348912 57.10648 -3520.30763324979
       0.968     1325    4163.0721   -3520.3076 1.8493068e-14 -3.4306221e-13     57.10648     57.10648   -2166.2791   -2166.2791 -2.8753414e-14 
4163.0721348912 57.10648 -3519.99650517881
       0.969     1326    4163.0721   -3519.9965 -1.7633756e-13 -2.0313065e-13     57.10648     57.10648   -2166.0959   -2166.0959 -5.600621e-14 
4163.0721348912 57.10648 -3519.6850556138
        0.97     1327    4163.0721   -3519.6851 -4.3874569e-14 -2.2800955e-13     57.10648     57.10648   -2165.9124   -2165.9124 4.6183917e-14 
4163.0721348912 57.10648 -3519.37329317206
       0.971     1328    4163.0721   -3519.3733 -3.5851926e-14 1.0393356e-13     57.10648     57.10648   -2165.7288   -2165.7288 9.6842471e-14 
4163.0721348912 57.10648 -3519.06122646155
       0.972     1329    4163.0721   -3519.0612 2.5493514e-15 -2.281023e-13     57.10648     57.10648    -2165.545    -2165.545 1.2929988e-13 
4163.28029370187 57.10648 -3518.57293103217
       0.973     1330    4163.2803   -3518.5729 -1.1814156e-13 -1.0587191e-13     57.10648     57.10648   -2165.2528   -2165.2528 3.642673e-15 
4163.28029370187 57.10648 -3556.81608272237
       0.974     1331    4163.2803   -3556.8161 7.1798862e-14 -1.4133407e-13     57.10648     57.10648   -2187.4331   -2187.4331 6.9797021e-14 
4163.28029370187 57.10648 -3556.5029832676
       0.975     1332    4163.2803    -3556.503 8.8039391e-14 1.3717304e-13     57.10648     57.10648   -2187.2488   -2187.2488 5.5580778e-14 
4163.28029370187 57.10648 -3556.18952802139
       0.976     1333    4163.2803   -3556.1895 6.6603918e-14 4.306601e-14     57.10648     57.10648   -2187.0642   -2187.0642 -8.8239081e-14 
4163.28029370187 57.10648 -3555.87572559046
       0.977     1334    4163.2803   -3555.8757 1.2875893e-13 3.455081e-15     57.10648     57.10648   -2186.8795   -2186.8795 -1.0735171e-14 
4163.28029370187 57.10648 -3555.56158459598
       0.978     1335    4163.2803   -3555.5616 1.1096603e-13 1.1562917e-13     57.10648     57.10648   -2186.6945   -2186.6945 -1.0843385e-14 
4163.28029370187 57.10648 -3555.24711366784
       0.979     1336    4163.2803   -3555.2471 1.4321601e-13 3.0455252e-13     57.10648     57.10648   -2186.5093   -2186.5093 -4.5505764e-14 
4163.28029370187 57.10648 -3554.93232143779
        0.98     1337    4163.2803   -3554.9323 1.1126471e-13 1.8573116e-13     57.10648     57.10648    -2186.324    -2186.324 -5.0266533e-14 
4163.28029370187 57.10648 -3554.61721653463
       0.981     1338    4163.2803   -3554.6172 3.057112e-14 1.4962823e-13     57.10648     57.10648   -2186.1385   -2186.1385 -6.4311752e-14 
4163.28029370187 57.10648 -3554.3018075811
       0.982     1339    4163.2803   -3554.3018 2.7227094e-13 1.9604072e-13     57.10648     57.10648   -2185.9528   -2185.9528 -5.1857356e-14 
4163.48846292074 57.10648 -3553.80840832088
       0.983     1340    4163.4885   -3553.8084 1.4513674e-13 8.5382679e-14     57.10648     57.10648   -2185.6576   -2185.6576 1.0910436e-13 
4163.48846292074 57.10648 -3592.05599134781
       0.984     1341    4163.4885    -3592.056 5.0207638e-13 -6.5573921e-14     57.10648     57.10648   -2207.8344   -2207.8344 -3.6501174e-14 
4163.48846292074 57.10648 -3591.73954947714
       0.985     1342    4163.4885   -3591.7395 2.1755112e-13 5.9195712e-14     57.10648     57.10648   -2207.6481   -2207.6481 -1.2587123e-14 
4163.48846292074 57.10648 -3591.42275208181
       0.986     1343    4163.4885   -3591.4228 2.7419764e-13 1.8851141e-13     57.10648     57.10648   -2207.4617   -2207.4617 5.3043891e-14 
4163.48846292074 57.10648 -3591.10560777726
       0.987     1344    4163.4885   -3591.1056 2.689429e-13 3.2756783e-13     57.10648     57.10648    -2207.275    -2207.275 6.0942979e-15 
4163.48846292074 57.10648 -3590.78812519334
       0.988     1345    4163.4885   -3590.7881 3.2622939e-13 1.3503139e-13     57.10648     57.10648   -2207.0881   -2207.0881 -4.2682022e-14 
4163.48846292074 57.10648 -3590.47031296834
       0.989     1346    4163.4885   -3590.4703 2.5804655e-13 2.245873e-13     57.10648     57.10648   -2206.9011   -2206.9011 -9.5329046e-14 
4163.48846292074 57.10648 -3590.15217974171
        0.99     1347    4163.4885   -3590.1522 4.1522978e-13 2.4688954e-13     57.10648     57.10648   -2206.7138   -2206.7138 -8.6369547e-16 
4163.48846292074 57.10648 -3589.83373414871
       0.991     1348    4163.4885   -3589.8337 2.7558635e-13 4.0903676e-13     57.10648     57.10648   -2206.5264   -2206.5264 3.3905478e-14 
4163.48846292074 57.10648 -3589.51498481417
       0.992     1349    4163.4885    -3589.515 2.6864958e-13 2.7065373e-13     57.10648     57.10648   -2206.3387   -2206.3387 6.7998165e-14 
4163.69664254833 57.10648 -3589.01648503952
       0.993     1350    4163.6966   -3589.0165 2.5429716e-13 4.9707399e-13     57.10648     57.10648   -2206.0406   -2206.0406 -3.967692e-14 
4163.69664254833 57.10648 -3627.26851550266
       0.994     1351    4163.6966   -3627.2685 4.2457141e-13 3.5145919e-13     57.10648     57.10648    -2228.214    -2228.214 4.6237562e-14 
4163.69664254833 57.10648 -3626.94873330466
       0.995     1352    4163.6966   -3626.9487 3.4137407e-13 2.9029047e-13     57.10648     57.10648   -2228.0258   -2228.0258 1.7879949e-13 
4163.69664254833 57.10648 -3626.62859590939
       0.996     1353    4163.6966   -3626.6286 2.8223245e-13 6.3482872e-13     57.10648     57.10648   -2227.8375   -2227.8375 2.2663487e-14 
4163.69664254833 57.10648 -3626.30811193515
       0.997     1354    4163.6966   -3626.3081 1.1875237e-13 2.6925689e-13     57.10648     57.10648   -2227.6489   -2227.6489 -7.9553933e-15 
4163.69664254833 57.10648 -3625.98729001145
       0.998     1355    4163.6966   -3625.9873 2.8958594e-13 4.5335965e-13     57.10648     57.10648   -2227.4601   -2227.4601 2.6986379e-14 
4163.69664254833 57.10648 -3625.66613877514
       0.999     1356    4163.6966   -3625.6661 3.3283577e-13 5.5092579e-13     57.10648     57.10648   -2227.2711   -2227.2711 5.6739157e-14 
4163.69664254833 57.10648 -3625.34466686475
           1     1357    4163.6966   -3625.3447 2.524017e-13 5.5285967e-13     57.10648     57.10648   -2227.0819   -2227.0819 2.5392768e-13 
Loop time of 36.546 on 128 procs for 1000 steps with 360800 atoms

Performance: 2.364 ns/day, 10.152 hours/ns, 27.363 timesteps/s
94.5% CPU use with 128 MPI tasks x 1 OpenMP threads

MPI task timing breakdown:
Section |  min time  |  avg time  |  max time  |%varavg| %total
---------------------------------------------------------------
Pair    | 0.34491    | 3.2471     | 9.6502     | 212.4 |  8.88
Neigh   | 0.027019   | 0.045452   | 0.059716   |   2.4 |  0.12
Comm    | 0.12966    | 1.2775     | 3.6574     | 140.3 |  3.50
Output  | 18.692     | 19.011     | 19.018     |   0.6 | 52.02
Modify  | 2.3419     | 11.563     | 15.933     | 167.9 | 31.64
Other   |            | 1.402      |            |       |  3.84

Nlocal:        2818.75 ave        9200 max           0 min
Histogram: 88 0 0 0 0 0 0 0 1 39
Nghost:        3888.73 ave       13317 max           0 min
Histogram: 87 1 0 0 0 0 2 0 0 38
Neighs:         0.00000 ave           0 max           0 min
Histogram: 128 0 0 0 0 0 0 0 0 0
FullNghs:      472488.0 ave  1.5456e+06 max           0 min
Histogram: 88 0 0 0 0 0 0 1 0 39

Total # of neighbors = 60478400
Ave neighs/atom = 167.62306
Neighbor list builds = 12
Dangerous builds = 0
