LAMMPS (29 Sep 2021 - Update 1)
KOKKOS mode is enabled (../kokkos.cpp:97)
  will use up to 4 GPU(s) per node
  using 1 OpenMP thread(s) per MPI task
Reading data file ...
  orthogonal box = (0.0000000 0.0000000 0.0000000) to (4143.0751 57.106480 57.106480)
  128 by 1 by 1 MPI processor grid
  reading atoms ...
  360800 atoms
  read_data CPU = 7.732 seconds
800 atoms in group source
800 atoms in group detector
400 atoms in group edge
400 atoms in group edge_buf
120000 atoms in group buffer
WARNING: Using 'neigh_modify every 1 delay 0 check yes' setting during minimization (../min.cpp:188)
Neighbor list info ...
  update every 1 steps, delay 0 steps, check yes
  max neighbors/atom: 2000, page size: 100000
  master list distance cutoff = 7.6
  ghost atom cutoff = 7.6
  binsize = 7.6, bins = 546 8 8
  1 neighbor lists, perpetual/occasional/extra = 1 0 0
  (1) pair eam/alloy/kk, perpetual
      attributes: full, newton off, kokkos_device
      pair build: full/bin/kk/device
      stencil: full/bin/3d
      bin: kk/device
Setting up cg/kk style minimization ...
  Unit style    : metal
  Current step  : 0
WARNING: Fixes cannot yet send exchange data in Kokkos communication, switching to classic exchange/border communication (../comm_kokkos.cpp:581)
Per MPI rank memory allocation (min/avg/max) = 2.254 | 3.806 | 7.377 Mbytes
Time Step Lx Pxx Pxy Pxz Ly Lz Pyy Pzz Pyz 
           0        0    4143.0751    12.766153 -4.5871982e-14 -2.1794271e-14     57.10648     57.10648   -85.456504   -85.456504 -1.3296324e-14 
      0.0001        1    4143.0751    4.9624194 -3.1734834e-14 2.2951476e-14     57.10648     57.10648   -95.172201   -95.172201 -4.9955598e-13 
      0.0002        2    4143.0751    2.7193318 -5.9908089e-14 1.2297608e-14     57.10648     57.10648   -97.006352   -97.006352 4.0386426e-13 
      0.0003        3    4143.0751    3.2072967 -7.2779548e-14 -5.1664449e-14     57.10648     57.10648   -96.140203   -96.140203 -1.0858141e-13 
      0.0004        4    4143.0751    2.6400573 4.1658931e-14 3.2017514e-14     57.10648     57.10648   -96.501525   -96.501525 4.1590329e-13 
      0.0005        5    4143.0751    1.8692697 5.0931863e-14 -3.2168851e-14     57.10648     57.10648   -97.038029   -97.038029 2.3465498e-14 
      0.0006        6    4143.0751    1.5880349 -3.763191e-14 -2.2130412e-13     57.10648     57.10648   -97.222835   -97.222835 -3.9456082e-13 
      0.0007        7    4143.0751    1.4304795 1.6097115e-13 3.5073208e-14     57.10648     57.10648   -97.302236   -97.302236 4.4756969e-14 
      0.0008        8    4143.0751    1.3102667 -2.4453315e-14 4.632302e-14     57.10648     57.10648   -97.373091   -97.373091 -2.0769788e-13 
      0.0009        9    4143.0751    1.1651506 -1.7117098e-14 -8.3341516e-14     57.10648     57.10648   -97.467596   -97.467596 1.389076e-13 
       0.001       10    4143.0751    1.0801049 -1.0764931e-13 -5.0031031e-14     57.10648     57.10648   -97.519517   -97.519517 5.8805992e-14 
      0.0011       11    4143.0751    1.0182961 -6.2882209e-14 -7.2734781e-14     57.10648     57.10648    -97.55383    -97.55383 3.5961433e-14 
      0.0012       12    4143.0751   0.96492776 -3.6543222e-14 -1.5258986e-13     57.10648     57.10648   -97.585187   -97.585187 1.2102591e-13 
      0.0013       13    4143.0751   0.90630688 -3.3125802e-14 -1.1613502e-13     57.10648     57.10648   -97.622306   -97.622306 1.8488432e-13 
      0.0014       14    4143.0751   0.86458184 1.7923283e-14 1.9941643e-14     57.10648     57.10648   -97.647661   -97.647661 -1.2268154e-14 
      0.0015       15    4143.0751   0.83242506 1.5219214e-14 2.0534111e-14     57.10648     57.10648   -97.665622   -97.665622 5.1881577e-14 
      0.0016       16    4143.0751   0.80214445 -2.3038919e-14 5.5070839e-14     57.10648     57.10648   -97.683642   -97.683642 4.809362e-15 
      0.0017       17    4143.0751   0.77060995 3.5458651e-14 -8.9823617e-14     57.10648     57.10648   -97.703317   -97.703317 -1.6625306e-15 
      0.0018       18    4143.0751   0.74604836 -5.6303463e-14 2.2055068e-15     57.10648     57.10648   -97.718075   -97.718075 -1.1067404e-14 
      0.0019       19    4143.0751   0.72612731 1.2489601e-13 8.3246475e-15     57.10648     57.10648   -97.729394   -97.729394 -2.0051606e-13 
       0.002       20    4143.0751   0.70656473 -1.8990411e-13 -7.3795705e-14     57.10648     57.10648   -97.741056   -97.741056 -7.8504653e-14 
      0.0021       21    4143.0751   0.68688561 -6.788711e-13 -6.5941669e-13     57.10648     57.10648   -97.753242   -97.753242 -3.3226062e-13 
      0.0022       22    4143.0751   0.67069145 -6.6431769e-12 -5.2654192e-12     57.10648     57.10648   -97.762917   -97.762917 -3.2987156e-12 
      0.0023       23    4143.0751   0.65754318 -4.4295189e-11 -3.2853059e-11     57.10648     57.10648   -97.770449   -97.770449 -2.0782214e-11 
      0.0024       24    4143.0751   0.64678881 -1.51655e-10 -1.0556134e-10     57.10648     57.10648   -97.776842   -97.776842 -6.6849389e-11 
      0.0025       25    4143.0751   0.63572413 -5.6482927e-11 -3.3574601e-11     57.10648     57.10648   -97.783603   -97.783603 -2.1077986e-11 
      0.0026       26    4143.0751   0.62405494 -1.4698226e-11 -3.8040654e-12     57.10648     57.10648   -97.790726   -97.790726 -2.8206562e-12 
      0.0027       27    4143.0751   0.61326869 -9.2876372e-12 8.1224358e-12     57.10648     57.10648   -97.797026   -97.797026 -2.7823327e-13 
      0.0028       28    4143.0751    0.6049146 -1.1281748e-11 3.554983e-11     57.10648     57.10648   -97.801885   -97.801885 -3.5238062e-13 
      0.0029       29    4143.0751   0.59725264 -1.2493132e-11 2.3841308e-11     57.10648     57.10648   -97.806485   -97.806485 -2.7336051e-12 
       0.003       30    4143.0751   0.58819057 -1.0098219e-11 -1.7748791e-12     57.10648     57.10648   -97.812035   -97.812035 -2.5309835e-12 
      0.0031       31    4143.0751   0.57978494 -2.4723093e-11 -1.1066546e-11     57.10648     57.10648   -97.817068   -97.817068 -2.8807116e-12 
      0.0032       32    4143.0751   0.57307458 -6.3567424e-11 -1.2572393e-11     57.10648     57.10648   -97.820963   -97.820963 -2.5219668e-12 
      0.0033       33    4143.0751   0.56737311 -4.2289318e-11 6.6126137e-12     57.10648     57.10648    -97.82431    -97.82431 -3.9100796e-13 
      0.0034       34    4143.0751   0.56000603 -1.9642076e-11 5.9347308e-12     57.10648     57.10648   -97.828769   -97.828769 4.5338861e-13 
      0.0035       35    4143.0751   0.55330622 -3.3190376e-11 -1.5209512e-11     57.10648     57.10648   -97.832844   -97.832844 2.564455e-12 
      0.0036       36    4143.0751   0.54800567 -5.1559038e-11 -3.4017023e-11     57.10648     57.10648   -97.835981   -97.835981 5.402967e-12 
      0.0037       37    4143.0751   0.54283516 -1.8585804e-11 -4.1406476e-12     57.10648     57.10648   -97.838991   -97.838991 2.3647142e-12 
      0.0038       38    4143.0751   0.53718306 -1.6895223e-11 -3.7397516e-12     57.10648     57.10648   -97.842344   -97.842344 1.4042851e-12 
      0.0039       39    4143.0751   0.53179966 -3.4424467e-11 -2.6470078e-11     57.10648     57.10648   -97.845617   -97.845617 1.3372805e-13 
       0.004       40    4143.0751    0.5273314 -2.3596674e-11 -1.5534432e-11     57.10648     57.10648   -97.848317   -97.848317 -1.4518503e-12 
      0.0041       41    4143.0751   0.52240895 -9.6948708e-12 1.0825546e-12     57.10648     57.10648   -97.851217   -97.851217 -1.2508951e-12 
      0.0042       42    4143.0751   0.51801126 -1.191597e-11 2.6872629e-12     57.10648     57.10648   -97.853789   -97.853789 -1.4632078e-12 
      0.0043       43    4143.0751    0.5140238 -1.4760389e-11 2.4495773e-12     57.10648     57.10648   -97.856174   -97.856174 -1.3906758e-12 
      0.0044       44    4143.0751   0.50962637 -6.3666608e-12  4.69935e-12     57.10648     57.10648   -97.858844   -97.858844 -1.4184281e-13 
      0.0045       45    4143.0751   0.50537336 -5.2769698e-12 2.8755985e-13     57.10648     57.10648   -97.861395   -97.861395 1.9541067e-12 
      0.0046       46    4143.0751   0.50180804 -3.5445924e-12 -8.5267751e-12     57.10648     57.10648   -97.863486   -97.863486 3.713821e-12 
      0.0047       47    4143.0751   0.49841562 -1.6820526e-12 -2.8327988e-12     57.10648     57.10648   -97.865477   -97.865477 1.2439923e-12 
      0.0048       48    4143.0751   0.49441702 -2.3580674e-12 -2.969147e-14     57.10648     57.10648   -97.867882   -97.867882 2.6415371e-13 
      0.0049       49    4143.0751   0.49090037 -3.078761e-12 -2.5855617e-12     57.10648     57.10648   -97.870011   -97.870011 2.9759565e-13 
       0.005       50    4143.0751   0.48776063 -6.3388712e-14 -9.1578055e-13     57.10648     57.10648   -97.871884   -97.871884 -1.1828501e-13 
      0.0051       51    4143.0751   0.48442492 8.029061e-13 2.4214314e-12     57.10648     57.10648   -97.873839   -97.873839 -1.2161585e-13 
      0.0052       52    4143.0751   0.48130087 4.1591148e-13 3.8204343e-12     57.10648     57.10648   -97.875688   -97.875688 3.069976e-13 
      0.0053       53    4143.0751   0.47832146 -2.5811267e-13 2.4709902e-12     57.10648     57.10648   -97.877484   -97.877484 -5.0383037e-13 
      0.0054       54    4143.0751   0.47523609 6.2693914e-13 1.4867682e-12     57.10648     57.10648   -97.879348   -97.879348 -7.4448306e-13 
      0.0055       55    4143.0751    0.4722487 1.7628863e-12 2.1365937e-12     57.10648     57.10648   -97.881118   -97.881118 8.0469422e-13 
      0.0056       56    4143.0751   0.46973922 1.523278e-12 3.1709023e-12     57.10648     57.10648   -97.882591   -97.882591 1.651583e-12 
      0.0057       57    4143.0751   0.46704607 9.4801269e-13 2.2326163e-12     57.10648     57.10648   -97.884191   -97.884191 5.6166024e-13 
      0.0058       58    4143.0751    0.4641192 1.7369367e-12 1.6665453e-12     57.10648     57.10648   -97.885959   -97.885959 1.4721472e-12 
      0.0059       59    4143.0751    0.4616423 2.2418503e-12 3.0200855e-12     57.10648     57.10648   -97.887447   -97.887447 2.4492671e-12 
       0.006       60    4143.0751   0.45917097 9.7383888e-13  3.50656e-12     57.10648     57.10648   -97.888907   -97.888907 9.5820672e-13 
      0.0061       61    4143.0751   0.45669967 9.7457893e-13 4.5735972e-12     57.10648     57.10648   -97.890361   -97.890361 1.6461057e-12 
      0.0062       62    4143.0751   0.45435481 2.0460857e-12 6.9365852e-12     57.10648     57.10648   -97.891763   -97.891763 3.2732395e-12 
      0.0063       63    4143.0751   0.45204482 9.3226164e-13 5.0161548e-12     57.10648     57.10648   -97.893157   -97.893157 1.6750028e-12 
      0.0064       64    4143.0751   0.44964797 3.6662899e-13 5.0566084e-12     57.10648     57.10648   -97.894592   -97.894592 2.1861883e-12 
      0.0065       65    4143.0751   0.44747702 4.9066292e-13 7.4317772e-12     57.10648     57.10648   -97.895871   -97.895871 5.0744522e-12 
      0.0066       66    4143.0751   0.44550262 6.5661663e-13 5.1938743e-12     57.10648     57.10648   -97.897036   -97.897036 3.9828867e-12 
      0.0067       67    4143.0751   0.44323221 5.8143255e-13 3.2698465e-12     57.10648     57.10648   -97.898397   -97.898397 3.1203533e-12 
      0.0068       68    4143.0751   0.44111401 3.4712317e-13 2.9702735e-12     57.10648     57.10648   -97.899674   -97.899674 4.4534603e-12 
      0.0069       69    4143.0751   0.43916698 -4.3737294e-13 1.1876611e-12     57.10648     57.10648   -97.900835   -97.900835 3.2721774e-12 
       0.007       70    4143.0751   0.43713204 -6.649742e-13 4.3170036e-13     57.10648     57.10648   -97.902034   -97.902034 1.6828289e-12 
      0.0071       71    4143.0751   0.43522484 -5.7045449e-13 5.7011475e-13     57.10648     57.10648   -97.903164   -97.903164 2.385325e-12 
      0.0072       72    4143.0751   0.43333203 -1.6382776e-12 8.1755262e-13     57.10648     57.10648   -97.904301   -97.904301 1.4373108e-12 
      0.0073       73    4143.0751   0.43136146 -1.3791826e-12  7.58168e-13     57.10648     57.10648   -97.905487   -97.905487 2.6690133e-13 
      0.0074       74    4143.0751   0.42949591 -5.3973043e-13 1.1272068e-12     57.10648     57.10648   -97.906595   -97.906595 3.6039592e-13 
      0.0075       75    4143.0751   0.42780784 -1.0489668e-12 7.0927689e-13     57.10648     57.10648    -97.90759    -97.90759 2.1016199e-13 
      0.0076       76    4143.0751    0.4259886 -1.6568101e-12 -3.2625799e-13     57.10648     57.10648   -97.908671   -97.908671 8.5836465e-14 
      0.0077       77    4143.0751   0.42413241 -1.3007016e-12 -1.8534729e-13     57.10648     57.10648   -97.909787   -97.909787 4.9788278e-13 
      0.0078       78    4143.0751    0.4225016 -1.7209953e-12 8.0292413e-13     57.10648     57.10648   -97.910766   -97.910766 3.8013738e-13 
      0.0079       79    4143.0751   0.42078529 -2.1495013e-12 1.0160735e-12     57.10648     57.10648   -97.911783   -97.911783 1.1853017e-13 
       0.008       80    4143.0751   0.41914823 -2.3341438e-12 8.1384394e-13     57.10648     57.10648   -97.912749   -97.912749   9.0476e-13 
      0.0081       81    4143.0751   0.41758475 -2.1658915e-12 8.5258874e-13     57.10648     57.10648   -97.913681   -97.913681 7.6847688e-13 
      0.0082       82    4143.0751   0.41588383 -1.8101768e-12 1.1273901e-12     57.10648     57.10648   -97.914705   -97.914705 1.6812964e-13 
      0.0083       83    4143.0751   0.41424251 -1.3604265e-12 1.8089588e-12     57.10648     57.10648   -97.915687   -97.915687 3.3709492e-13 
      0.0084       84    4143.0751   0.41275233 -1.6329623e-12 2.102801e-12     57.10648     57.10648   -97.916568   -97.916568 4.0400175e-13 
      0.0085       85    4143.0751   0.41125607 -1.9271708e-12 2.4540329e-12     57.10648     57.10648   -97.917452   -97.917452 1.8646917e-13 
      0.0086       86    4143.0751   0.40967457 -1.4754221e-12 3.6769919e-12     57.10648     57.10648   -97.918398   -97.918398 5.5373971e-13 
      0.0087       87    4143.0751   0.40820715 -1.2980131e-12 3.4836169e-12     57.10648     57.10648   -97.919281   -97.919281 8.1542814e-13 
      0.0088       88    4143.0751   0.40671696 -1.7754622e-12 2.6083928e-12     57.10648     57.10648    -97.92017    -97.92017 4.6730515e-13 
      0.0089       89    4143.0751   0.40524369 -2.1252078e-12 2.8277782e-12     57.10648     57.10648    -97.92104    -97.92104 9.0896913e-13 
       0.009       90    4143.0751   0.40389921 -1.8970143e-12 2.9413746e-12     57.10648     57.10648   -97.921837   -97.921837 1.3347398e-12 
      0.0091       91    4143.0751   0.40243142 -1.9798236e-12 2.5333906e-12     57.10648     57.10648   -97.922716   -97.922716 8.7232696e-13 
      0.0092       92    4143.0751   0.40098154 -2.1232899e-12 2.2814063e-12     57.10648     57.10648   -97.923587   -97.923587 5.8096006e-13 
      0.0093       93    4143.0751   0.39964727 -1.6961836e-12 2.1041533e-12     57.10648     57.10648   -97.924381   -97.924381 3.3252351e-13 
      0.0094       94    4143.0751   0.39828731 -1.7666623e-12 1.6355695e-12     57.10648     57.10648   -97.925185   -97.925185 6.3885748e-14 
      0.0095       95    4143.0751   0.39692129 -2.1283114e-12 1.1833089e-12     57.10648     57.10648   -97.925997   -97.925997 -3.132338e-13 
      0.0096       96    4143.0751   0.39559737 -1.9969921e-12 2.3935379e-13     57.10648     57.10648   -97.926791   -97.926791 -3.0165942e-13 
      0.0097       97    4143.0751   0.39426177 -1.8093064e-12 1.4218347e-13     57.10648     57.10648   -97.927592   -97.927592 -1.9946538e-13 
      0.0098       98    4143.0751   0.39292475 -2.2712477e-12 6.1303351e-13     57.10648     57.10648   -97.928386   -97.928386 -2.7158571e-13 
      0.0099       99    4143.0751   0.39170664 -2.3390275e-12 1.0381776e-12     57.10648     57.10648   -97.929106   -97.929106 -5.2652114e-14 
        0.01      100    4143.0751   0.39042551 -1.6761176e-12  5.87401e-13     57.10648     57.10648   -97.929869   -97.929869 7.6345307e-14 
      0.0101      101    4143.0751   0.38909922 -1.553441e-12 1.8796767e-13     57.10648     57.10648   -97.930665   -97.930665 2.9079689e-13 
      0.0102      102    4143.0751   0.38787828 -1.3281463e-12 -2.5044985e-13     57.10648     57.10648   -97.931395   -97.931395 5.196566e-13 
      0.0103      103    4143.0751   0.38661539 -1.0281959e-12 -4.948656e-13     57.10648     57.10648   -97.932144   -97.932144 8.1732878e-14 
      0.0104      104    4143.0751   0.38539376 -1.6132628e-12 -1.1880438e-12     57.10648     57.10648   -97.932867   -97.932867 2.1269421e-13 
      0.0105      105    4143.0751   0.38421424 -1.9824746e-12 -2.4117748e-13     57.10648     57.10648   -97.933571   -97.933571 -6.178739e-14 
      0.0106      106    4143.0751     0.382966 -1.3900642e-12 4.5074513e-13     57.10648     57.10648    -97.93432    -97.93432 -2.024769e-13 
      0.0107      107    4143.0751    0.3817397 -1.0415838e-12 2.7659133e-13     57.10648     57.10648   -97.935053   -97.935053 -9.5701684e-14 
      0.0108      108    4143.0751   0.38059803 -1.0952198e-12 5.7274476e-14     57.10648     57.10648   -97.935729   -97.935729 -2.4039201e-13 
      0.0109      109    4143.0751   0.37943774 -5.5926909e-13 6.8115908e-13     57.10648     57.10648   -97.936417   -97.936417 -3.7863478e-13 
       0.011      110    4143.0751    0.3782206 -6.3336761e-15 1.9316133e-12     57.10648     57.10648   -97.937144   -97.937144 1.6981644e-14 
      0.0111      111    4143.0751   0.37708132 1.4985895e-13 2.3458165e-12     57.10648     57.10648   -97.937828   -97.937828 -7.3203255e-14 
      0.0112      112    4143.0751   0.37592014 1.0178166e-13 2.1742965e-12     57.10648     57.10648    -97.93852    -97.93852 -1.8358202e-14 
      0.0113      113    4143.0751   0.37477158 7.1296118e-13 2.5573167e-12     57.10648     57.10648     -97.9392     -97.9392 -1.485004e-16 
      0.0114      114    4143.0751   0.37369495 1.2291727e-12 2.8722604e-12     57.10648     57.10648   -97.939839   -97.939839 -1.4862932e-13 
      0.0115      115    4143.0751   0.37253771 1.2476752e-12 2.472655e-12     57.10648     57.10648   -97.940532   -97.940532 -2.320946e-13 
      0.0116      116    4143.0751   0.37140502 1.6645221e-12 2.7239702e-12     57.10648     57.10648   -97.941211   -97.941211 -2.7330846e-13 
      0.0117      117    4143.0751   0.37033114 1.5901631e-12 2.3133341e-12     57.10648     57.10648   -97.941849   -97.941849 -2.4677925e-13 
      0.0118      118    4143.0751   0.36922916 1.2051204e-12 1.4797926e-12     57.10648     57.10648   -97.942502   -97.942502 -7.084979e-14 
      0.0119      119    4143.0751   0.36812781 1.4507567e-12 1.0675767e-12     57.10648     57.10648   -97.943157   -97.943157 2.8325935e-14 
       0.012      120    4143.0751   0.36704325 1.4096549e-12 6.8832941e-13     57.10648     57.10648   -97.943807   -97.943807 1.838633e-13 
      0.0121      121    4143.0751   0.36593966 1.2176206e-12 7.0690895e-13     57.10648     57.10648   -97.944467   -97.944467 1.7908679e-13 
      0.0122      122    4143.0751   0.36485078 2.1738901e-12 7.4181429e-13     57.10648     57.10648   -97.945114   -97.945114 2.2580019e-13 
      0.0123      123    4143.0751   0.36383619 1.9893371e-12 1.9879173e-13     57.10648     57.10648   -97.945715   -97.945715 2.4459668e-13 
      0.0124      124    4143.0751   0.36275699 1.7926106e-12 -5.9238545e-14     57.10648     57.10648   -97.946358   -97.946358 1.9026468e-13 
      0.0125      125    4143.0751   0.36166968 2.2905443e-12 -2.8489487e-13     57.10648     57.10648    -97.94701    -97.94701 1.0770855e-13 
      0.0126      126    4143.0751   0.36065292 2.5447387e-12 -2.2920012e-13     57.10648     57.10648   -97.947617   -97.947617 1.8562267e-13 
      0.0127      127    4143.0751   0.35959798 2.0326349e-12 8.548524e-14     57.10648     57.10648   -97.948243   -97.948243 -5.6197676e-14 
      0.0128      128    4143.0751   0.35857306 1.9051782e-12 -1.26606e-13     57.10648     57.10648   -97.948851   -97.948851 -1.0832461e-13 
      0.0129      129    4143.0751   0.35754762 2.3027067e-12 -4.4873059e-13     57.10648     57.10648   -97.949463   -97.949463 -1.2314437e-13 
       0.013      130    4143.0751   0.35648617 1.980911e-12 -5.3798405e-13     57.10648     57.10648   -97.950099   -97.950099 5.5470901e-14 
      0.0131      131    4143.0751   0.35546349 2.057063e-12 -4.7867952e-13     57.10648     57.10648   -97.950709   -97.950709 -3.8552024e-14 
      0.0132      132    4143.0751   0.35446825 1.5603394e-12 -1.5885755e-13     57.10648     57.10648   -97.951299   -97.951299 -2.8193098e-13 
      0.0133      133    4143.0751    0.3534499 1.6447418e-12 -4.6877532e-13     57.10648     57.10648   -97.951904   -97.951904 -1.593097e-13 
      0.0134      134    4143.0751    0.3524252 1.7327537e-12 -4.1721798e-13     57.10648     57.10648   -97.952517   -97.952517 1.2680567e-13 
      0.0135      135    4143.0751   0.35143152 1.5581579e-12 2.4550928e-16     57.10648     57.10648   -97.953112   -97.953112 2.3169778e-13 
      0.0136      136    4143.0751   0.35040968 1.5749558e-12 1.0811162e-13     57.10648     57.10648    -97.95372    -97.95372 1.8009183e-14 
      0.0137      137    4143.0751   0.34943084 2.2852958e-12 3.6332182e-13     57.10648     57.10648     -97.9543     -97.9543 -1.9963898e-13 
      0.0138      138    4143.0751   0.34846511 1.5672865e-12 4.3417282e-13     57.10648     57.10648   -97.954875   -97.954875 4.1965678e-14 
      0.0139      139    4143.0751   0.34743338 1.5416195e-12 3.7988254e-13     57.10648     57.10648   -97.955492   -97.955492 -5.1246407e-14 
       0.014      140    4143.0751   0.34645548 1.9801841e-12 5.1815999e-13     57.10648     57.10648   -97.956077   -97.956077 1.4924283e-15 
      0.0141      141    4143.0751   0.34548156 1.8552017e-12 3.983501e-13     57.10648     57.10648   -97.956656   -97.956656 -1.6443234e-14 
      0.0142      142    4143.0751   0.34448926 1.8865879e-12 5.7529904e-13     57.10648     57.10648   -97.957245   -97.957245 -1.2263538e-13 
      0.0143      143    4143.0751   0.34352832 1.9421791e-12 9.0887254e-13     57.10648     57.10648   -97.957817   -97.957817 -5.4926737e-14 
      0.0144      144    4143.0751   0.34254985 1.4792976e-12 7.1796379e-13     57.10648     57.10648   -97.958402   -97.958402 -1.2894203e-13 
      0.0145      145    4143.0751   0.34155588 1.3795942e-12 4.1544461e-13     57.10648     57.10648   -97.958996   -97.958996 -1.0809153e-13 
      0.0146      146    4143.0751   0.34060079 1.4271847e-12 4.6650444e-13     57.10648     57.10648   -97.959564   -97.959564 -8.9085661e-14 
      0.0147      147    4143.0751    0.3396618 1.1796472e-12 3.6640408e-13     57.10648     57.10648   -97.960121   -97.960121 -1.3190805e-13 
      0.0148      148    4143.0751   0.33867643 8.2767221e-13 6.4351441e-13     57.10648     57.10648   -97.960708   -97.960708 -1.692535e-13 
      0.0149      149    4143.0751    0.3377201 1.1113413e-12 3.0379815e-13     57.10648     57.10648   -97.961281   -97.961281 -5.2475587e-14 
       0.015      150    4143.0751   0.33676716 7.8313881e-13  3.29055e-14     57.10648     57.10648    -97.96185    -97.96185 -1.1207169e-13 
      0.0151      151    4143.0751   0.33579096 5.8017654e-13 -4.1193044e-14     57.10648     57.10648   -97.962429   -97.962429 -3.280189e-14 
      0.0152      152    4143.0751   0.33486743 2.1217399e-13 -2.6161163e-13     57.10648     57.10648   -97.962978   -97.962978 -1.1744213e-13 
      0.0153      153    4143.0751    0.3339057 1.0334144e-13 -2.0438437e-13     57.10648     57.10648   -97.963552   -97.963552 2.1175057e-14 
      0.0154      154    4143.0751   0.33292903 -1.37191e-13 -2.1416683e-13     57.10648     57.10648   -97.964136   -97.964136 7.6494427e-14 
      0.0155      155    4143.0751   0.33200445 -1.8948469e-13 -3.6330714e-13     57.10648     57.10648   -97.964687   -97.964687 -1.6222513e-14 
      0.0156      156    4143.0751   0.33106459 3.4450236e-14 -3.0176044e-13     57.10648     57.10648   -97.965245   -97.965245 -6.303942e-14 
      0.0157      157    4143.0751   0.33011399 2.1591935e-13 -6.1896384e-14     57.10648     57.10648    -97.96581    -97.96581 -2.6145185e-14 
      0.0158      158    4143.0751   0.32917768 -2.302085e-13 2.2318583e-13     57.10648     57.10648    -97.96637    -97.96637 1.6394247e-13 
      0.0159      159    4143.0751   0.32823553 -2.5329777e-13 2.0414187e-13     57.10648     57.10648   -97.966933   -97.966933 1.3558134e-13 
       0.016      160    4143.0751   0.32728409 -4.8942545e-13 8.664925e-14     57.10648     57.10648     -97.9675     -97.9675 2.1480536e-15 
      0.0161      161    4143.0751   0.32637543 -5.6719307e-13 2.3358891e-13     57.10648     57.10648   -97.968039   -97.968039 -4.5434859e-14 
      0.0162      162    4143.0751    0.3254437 -2.3992894e-13 1.5074053e-13     57.10648     57.10648   -97.968593   -97.968593 -5.3964534e-14 
      0.0163      163    4143.0751   0.32448413 1.0809631e-13 8.8801652e-14     57.10648     57.10648   -97.969167   -97.969167 -3.4001814e-14 
      0.0164      164    4143.0751   0.32357158 1.6721326e-13 1.6442253e-13     57.10648     57.10648   -97.969712   -97.969712 -6.7653843e-14 
      0.0165      165    4143.0751   0.32263387 -7.0309749e-14 6.0511413e-14     57.10648     57.10648    -97.97027    -97.97027 -1.2490352e-13 
      0.0166      166    4143.0751   0.32170937 -8.5766081e-14 -6.3028048e-14     57.10648     57.10648   -97.970819   -97.970819 -7.4870821e-14 
      0.0167      167    4143.0751   0.32079882 -8.680827e-15 -9.9958764e-14     57.10648     57.10648   -97.971361   -97.971361 -1.7554708e-13 
      0.0168      168    4143.0751   0.31984709 7.3806451e-14 3.2093405e-14     57.10648     57.10648   -97.971931   -97.971931 6.2937423e-14 
      0.0169      169    4143.0751   0.31891834 3.8535812e-14 3.2748813e-13     57.10648     57.10648   -97.972485   -97.972485 -9.3648996e-15 
       0.017      170    4143.0751   0.31800885 6.6053492e-14 6.9034873e-14     57.10648     57.10648   -97.973026   -97.973026 -4.8776895e-14 
      0.0171      171    4143.0751    0.3170837 2.6934505e-13 -3.0335455e-13     57.10648     57.10648   -97.973575   -97.973575 -6.1059693e-14 
      0.0172      172    4143.0751   0.31615347 6.6576623e-14 -3.0195704e-13     57.10648     57.10648    -97.97413    -97.97413 -1.0610896e-14 
      0.0173      173    4143.0751   0.31523994 8.0159589e-14 -6.0586027e-13     57.10648     57.10648   -97.974676   -97.974676 -1.5057308e-13 
      0.0174      174    4143.0751   0.31430667 -2.7484894e-13 -5.8633326e-13     57.10648     57.10648   -97.975233   -97.975233 1.3243668e-14 
      0.0175      175    4143.0751   0.31338756 -2.5103421e-13 -5.2337945e-13     57.10648     57.10648   -97.975779   -97.975779 -9.191427e-14 
      0.0176      176    4143.0751   0.31249304 1.4030254e-13 -7.3001125e-13     57.10648     57.10648    -97.97631    -97.97631 -2.5281518e-14 
      0.0177      177    4143.0751   0.31155224 -1.0417821e-13 -1.1220015e-12     57.10648     57.10648   -97.976872   -97.976872 -3.6475113e-14 
      0.0178      178    4143.0751    0.3106356 -3.6775479e-13 -1.1010913e-12     57.10648     57.10648    -97.97742    -97.97742 -3.2634294e-14 
      0.0179      179    4143.0751   0.30972808 -1.1379592e-13 -1.136025e-12     57.10648     57.10648   -97.977961   -97.977961 -1.8065293e-14 
       0.018      180    4143.0751   0.30880139 -7.4993116e-16 -1.3669974e-12     57.10648     57.10648   -97.978511   -97.978511 -1.393545e-13 
      0.0181      181    4143.0751   0.30790391 -2.0893733e-13 -1.2266521e-12     57.10648     57.10648   -97.979045   -97.979045 -4.9447553e-14 
      0.0182      182    4143.0751   0.30698325 1.2322029e-13 -1.090442e-12     57.10648     57.10648   -97.979595   -97.979595 -1.5564388e-13 
      0.0183      183    4143.0751   0.30605013 4.5711816e-13 -9.9946411e-13     57.10648     57.10648   -97.980153   -97.980153 2.5611059e-14 
      0.0184      184    4143.0751   0.30514399 1.3849382e-13 -1.1176313e-12     57.10648     57.10648   -97.980692   -97.980692 -1.3209885e-14 
      0.0185      185    4143.0751   0.30424076 -1.6636766e-13 -7.562684e-13     57.10648     57.10648   -97.981229   -97.981229 -1.3771552e-14 
      0.0186      186    4143.0751   0.30331702 -5.9724169e-14 -5.2175669e-13     57.10648     57.10648   -97.981778   -97.981778 -3.6793318e-14 
      0.0187      187    4143.0751   0.30240485 -4.027071e-13 -8.5149506e-13     57.10648     57.10648   -97.982324   -97.982324 -1.5065958e-13 
      0.0188      188    4143.0751   0.30149449 -4.6080505e-13 -1.0622009e-12     57.10648     57.10648   -97.982867   -97.982867 -1.9364773e-13 
      0.0189      189    4143.0751    0.3005686 -2.9711017e-13 -9.1275677e-13     57.10648     57.10648   -97.983418   -97.983418 -1.3403568e-13 
       0.019      190    4143.0751   0.29967997 -1.7377599e-13 -8.9613907e-13     57.10648     57.10648   -97.983946   -97.983946 -6.9552911e-14 
      0.0191      191    4143.0751   0.29876505 -2.3078674e-13 -5.540511e-13     57.10648     57.10648   -97.984491   -97.984491 -8.558799e-14 
      0.0192      192    4143.0751   0.29783527 -1.9501445e-13 -5.9699422e-14     57.10648     57.10648   -97.985047   -97.985047 6.1571726e-14 
      0.0193      193    4143.0751   0.29694163 6.9858333e-14 -4.9923778e-14     57.10648     57.10648    -97.98558    -97.98558 -8.3241122e-14 
      0.0194      194    4143.0751    0.2960207 8.557005e-14 -3.8605363e-13     57.10648     57.10648   -97.986128   -97.986128 1.010843e-14 
      0.0195      195    4143.0751   0.29510881 5.3077113e-13 -6.1969982e-13     57.10648     57.10648    -97.98667    -97.98667 6.1226184e-14 
      0.0196      196    4143.0751   0.29420644 6.6067508e-13 -8.0312342e-13     57.10648     57.10648   -97.987208   -97.987208 1.317652e-13 
      0.0197      197    4143.0751   0.29328122 4.7886118e-13 -1.0186694e-12     57.10648     57.10648   -97.987761   -97.987761 1.2843819e-13 
      0.0198      198    4143.0751   0.29236432 3.0578512e-13 -1.1967611e-12     57.10648     57.10648   -97.988308   -97.988308 -1.419801e-13 
      0.0199      199    4143.0751    0.2914641 5.6297538e-13 -1.1685178e-12     57.10648     57.10648   -97.988842   -97.988842 -1.1605817e-13 
        0.02      200    4143.0751   0.29054901 3.2951933e-13 -9.4358653e-13     57.10648     57.10648   -97.989387   -97.989387 4.8200654e-15 
      0.0201      201    4143.0751   0.28962525 -2.4467437e-13 -8.6997818e-13     57.10648     57.10648   -97.989938   -97.989938 -5.946316e-15 
      0.0202      202    4143.0751   0.28872496 -4.9831156e-13 -4.5262807e-13     57.10648     57.10648   -97.990476   -97.990476 -8.3997797e-14 
      0.0203      203    4143.0751   0.28780077 -6.486914e-14 -5.7255819e-13     57.10648     57.10648   -97.991027   -97.991027 -2.3957513e-13 
      0.0204      204    4143.0751   0.28689304 2.3593943e-13 -7.7036359e-13     57.10648     57.10648   -97.991566   -97.991566 -1.4518568e-13 
      0.0205      205    4143.0751   0.28599978 2.6954459e-13 -9.5039566e-13     57.10648     57.10648   -97.992097   -97.992097 -2.6439901e-13 
      0.0206      206    4143.0751   0.28506575 -1.7133899e-15 -9.3862936e-13     57.10648     57.10648   -97.992655   -97.992655 -4.2799679e-14 
      0.0207      207    4143.0751   0.28415801 -1.8264391e-13 -8.877466e-13     57.10648     57.10648   -97.993197   -97.993197 -1.6076811e-13 
      0.0208      208    4143.0751   0.28325165 1.0577417e-13 -9.3785558e-13     57.10648     57.10648   -97.993737   -97.993737 -6.353513e-14 
      0.0209      209    4143.0751   0.28233164 8.6074701e-14 -7.8489997e-13     57.10648     57.10648   -97.994284   -97.994284 -1.4654072e-13 
       0.021      210    4143.0751   0.28142764 -3.9205655e-13 -5.5573462e-13     57.10648     57.10648   -97.994822   -97.994822 -3.8156572e-14 
      0.0211      211    4143.0751   0.28050898 -7.5625345e-13 -5.4981713e-13     57.10648     57.10648   -97.995371   -97.995371 -9.2022376e-14 
      0.0212      212    4143.0751   0.27958112 -9.5738289e-14 -7.0706131e-13     57.10648     57.10648   -97.995925   -97.995925 9.434389e-14 
      0.0213      213    4143.0751   0.27867328 4.3707122e-13 -7.1269892e-13     57.10648     57.10648   -97.996465   -97.996465 1.2685882e-13 
      0.0214      214    4143.0751   0.27777091 1.4650735e-13 -6.3297172e-14     57.10648     57.10648   -97.997001   -97.997001 -5.2728616e-14 
      0.0215      215    4143.0751   0.27684129 -2.3698999e-14 -5.5548441e-13     57.10648     57.10648   -97.997555   -97.997555 -2.7480243e-14 
      0.0216      216    4143.0751    0.2759297 -2.7245697e-14 -1.3343789e-12     57.10648     57.10648     -97.9981     -97.9981 -2.0082082e-13 
      0.0217      217    4143.0751   0.27501699 2.9980048e-13 -1.362339e-12     57.10648     57.10648   -97.998644   -97.998644 -2.1973605e-14 
      0.0218      218    4143.0751   0.27409016 2.4432084e-13 -1.5444232e-12     57.10648     57.10648   -97.999195   -97.999195 -1.7087361e-13 
      0.0219      219    4143.0751   0.27319535 1.5246497e-14  -1.4898e-12     57.10648     57.10648   -97.999727   -97.999727 -1.0440295e-13 
       0.022      220    4143.0751   0.27227118 -6.9124088e-14 -1.1394369e-12     57.10648     57.10648   -98.000279   -98.000279 -1.593875e-14 
      0.0221      221    4143.0751   0.27134067 7.4684101e-14 -1.1517091e-12     57.10648     57.10648   -98.000835   -98.000835 -1.275221e-13 
      0.0222      222    4143.0751    0.2704347 4.0248682e-13 -1.1851453e-12     57.10648     57.10648   -98.001375   -98.001375 -2.4593098e-13 
      0.0223      223    4143.0751   0.26951353 1.2292007e-13 -1.1099598e-12     57.10648     57.10648   -98.001922   -98.001922 -1.2312971e-13 
      0.0224      224    4143.0751   0.26859838 -2.1666108e-13 -1.2747755e-12     57.10648     57.10648   -98.002467   -98.002467 -4.4668167e-14 
      0.0225      225    4143.0751   0.26768246 5.2060745e-14 -1.0530533e-12     57.10648     57.10648   -98.003013   -98.003013 9.1359127e-14 
      0.0226      226    4143.0751   0.26675357 4.4578612e-13 -7.4989587e-13     57.10648     57.10648   -98.003568   -98.003568 7.1098178e-14 
      0.0227      227    4143.0751   0.26583032 4.8233455e-14 -6.8682014e-13     57.10648     57.10648   -98.004118   -98.004118 4.1832037e-14 
      0.0228      228    4143.0751   0.26492549 3.5205703e-14 -9.2493948e-13     57.10648     57.10648   -98.004656   -98.004656    3.651e-15 
      0.0229      229    4143.0751   0.26400316 2.3473612e-13 -7.8436598e-13     57.10648     57.10648   -98.005205   -98.005205 -1.8764178e-13 
       0.023      230    4143.0751   0.26307518 1.2155535e-13 -3.0726581e-13     57.10648     57.10648   -98.005759   -98.005759 5.8177547e-14 
      0.0231      231    4143.0751   0.26216136 1.7157648e-13 -3.0104929e-13     57.10648     57.10648   -98.006304   -98.006304 -1.9163977e-13 
      0.0232      232    4143.0751   0.26122543 3.9870392e-13 -5.5108231e-13     57.10648     57.10648   -98.006862   -98.006862 8.5605685e-14 
      0.0233      233    4143.0751   0.26031485 6.9372403e-13 -5.7434495e-13     57.10648     57.10648   -98.007403   -98.007403 7.6462538e-14 
      0.0234      234    4143.0751   0.25940159 7.2800674e-13 -3.549314e-13     57.10648     57.10648   -98.007947   -98.007947 -1.4763146e-13 
      0.0235      235    4143.0751    0.2584578 2.7693679e-13 -4.0809266e-13     57.10648     57.10648    -98.00851    -98.00851 -4.5734248e-14 
      0.0236      236    4143.0751   0.25754147 4.4700169e-13 -2.8692634e-13     57.10648     57.10648   -98.009057   -98.009057 5.4307782e-14 
      0.0237      237    4143.0751   0.25661945 4.3796437e-13 -5.3180153e-13     57.10648     57.10648   -98.009606   -98.009606 -1.8685252e-13 
      0.0238      238    4143.0751   0.25569055 2.158431e-13 -7.5889505e-13     57.10648     57.10648   -98.010158   -98.010158 -1.2939079e-13 
      0.0239      239    4143.0751   0.25477046 6.2777826e-13 -7.9859082e-13     57.10648     57.10648   -98.010707   -98.010707 -2.2425096e-13 
       0.024      240    4143.0751   0.25384077 7.3686583e-13 -9.9557903e-13     57.10648     57.10648   -98.011262   -98.011262 -1.0744588e-13 
      0.0241      241    4143.0751   0.25290461 6.4229663e-13 -8.2546826e-13     57.10648     57.10648    -98.01182    -98.01182 -1.1370761e-13 
      0.0242      242    4143.0751   0.25198659 6.7150829e-13 -7.6231467e-13     57.10648     57.10648   -98.012366   -98.012366 -7.2860388e-14 
      0.0243      243    4143.0751   0.25106679 7.2133637e-13 -6.2000741e-13     57.10648     57.10648   -98.012913   -98.012913 -6.6083981e-14 
      0.0244      244    4143.0751    0.2501226 1.7741307e-13 -6.9358022e-13     57.10648     57.10648   -98.013476   -98.013476 -1.541749e-14 
      0.0245      245    4143.0751   0.24919905 -1.8605461e-13 -3.9295147e-13     57.10648     57.10648   -98.014028   -98.014028 -1.522132e-13 
      0.0246      246    4143.0751   0.24826573 2.8646533e-13 -3.6196129e-13     57.10648     57.10648   -98.014584   -98.014584 8.5091195e-14 
      0.0247      247    4143.0751   0.24733205 9.7697724e-14 -7.183053e-13     57.10648     57.10648   -98.015139   -98.015139 6.2790871e-14 
      0.0248      248    4143.0751   0.24641879 -9.3205312e-14 -1.2382403e-12     57.10648     57.10648   -98.015683   -98.015683 6.7649764e-14 
      0.0249      249    4143.0751    0.2454735 3.474286e-13 -9.3431839e-13     57.10648     57.10648   -98.016247   -98.016247 -9.415768e-14 
       0.025      250    4143.0751   0.24453907 2.8330652e-13 -8.927037e-13     57.10648     57.10648   -98.016805   -98.016805 4.5641162e-14 
      0.0251      251    4143.0751   0.24361615 4.4088363e-13 -9.9285952e-13     57.10648     57.10648   -98.017354   -98.017354 -1.3188082e-13 
      0.0252      252    4143.0751   0.24267767 4.8806443e-13 -9.2973433e-13     57.10648     57.10648   -98.017912   -98.017912 -1.6611027e-13 
      0.0253      253    4143.0751   0.24174712 4.7052051e-13 -7.2849078e-13     57.10648     57.10648   -98.018467   -98.018467 -1.4658427e-13 
      0.0254      254    4143.0751   0.24081618 5.989324e-13 -8.2871865e-13     57.10648     57.10648   -98.019022   -98.019022 -4.3775832e-14 
      0.0255      255    4143.0751   0.23987383 9.8768574e-13 -8.7366302e-13     57.10648     57.10648   -98.019585   -98.019585 -1.8261416e-13 
      0.0256      256    4143.0751   0.23894133 9.7432546e-13 -5.3831036e-13     57.10648     57.10648    -98.02014    -98.02014 -1.3646957e-13 
      0.0257      257    4143.0751   0.23802233 1.0454806e-12 -3.0470088e-13     57.10648     57.10648   -98.020686   -98.020686 -1.6360917e-13 
      0.0258      258    4143.0751   0.23707546 9.6970105e-13 -5.299156e-13     57.10648     57.10648    -98.02125    -98.02125 -4.850389e-14 
      0.0259      259    4143.0751   0.23613513 1.1641344e-12 -5.8364986e-13     57.10648     57.10648   -98.021812   -98.021812 5.8313716e-15 
       0.026      260    4143.0751   0.23520432 1.4688966e-12 -5.7761733e-14     57.10648     57.10648   -98.022367   -98.022367 -2.2396971e-14 
      0.0261      261    4143.0751    0.2342543 1.2322792e-12 5.0606068e-14     57.10648     57.10648   -98.022932   -98.022932 -5.7166904e-14 
      0.0262      262    4143.0751   0.23333042 1.182675e-12 -2.1818016e-13     57.10648     57.10648   -98.023482   -98.023482 2.3346488e-16 
      0.0263      263    4143.0751   0.23239148 1.3349298e-12 7.3998547e-15     57.10648     57.10648   -98.024042   -98.024042 2.4640573e-13 
      0.0264      264    4143.0751   0.23143859 1.4907192e-12 3.4842075e-13     57.10648     57.10648   -98.024611   -98.024611 4.8196514e-14 
      0.0265      265    4143.0751   0.23050936 1.4492252e-12 1.6668882e-14     57.10648     57.10648   -98.025165   -98.025165 2.0633704e-13 
      0.0266      266    4143.0751   0.22956793 1.756271e-12 -5.4871608e-13     57.10648     57.10648   -98.025725   -98.025725 5.4830811e-14 
      0.0267      267    4143.0751   0.22862403 1.7369268e-12 -5.1381126e-13     57.10648     57.10648   -98.026286   -98.026286 -4.9301055e-16 
      0.0268      268    4143.0751   0.22768529 1.8824183e-12 -3.7970314e-13     57.10648     57.10648   -98.026846   -98.026846 1.2071989e-13 
      0.0269      269    4143.0751   0.22673893 1.8088337e-12 -9.4721312e-13     57.10648     57.10648   -98.027411   -98.027411 1.941985e-13 
       0.027      270    4143.0751   0.22579077 2.1450917e-12 -6.3376522e-13     57.10648     57.10648   -98.027976   -98.027976 6.9407051e-14 
      0.0271      271    4143.0751   0.22486076 2.3242762e-12 -2.6587668e-13     57.10648     57.10648   -98.028529   -98.028529 -5.1296153e-14 
      0.0272      272    4143.0751   0.22391688 2.5773059e-12 -7.5220193e-13     57.10648     57.10648   -98.029091   -98.029091 -1.8949536e-14 
      0.0273      273    4143.0751   0.22296093 2.6073982e-12 -9.537611e-13     57.10648     57.10648   -98.029661   -98.029661 -7.2030352e-14 
      0.0274      274    4143.0751   0.22202754 2.5062182e-12 -6.1392317e-13     57.10648     57.10648   -98.030219   -98.030219 -4.4454556e-14 
      0.0275      275    4143.0751   0.22107289 2.3422468e-12 -6.5751388e-14     57.10648     57.10648   -98.030787   -98.030787 2.276045e-14 
      0.0276      276    4143.0751   0.22012807 2.3676213e-12 -4.5086101e-13     57.10648     57.10648   -98.031349   -98.031349 8.718165e-14 
      0.0277      277    4143.0751   0.21919289 2.6435452e-12 -4.5808244e-13     57.10648     57.10648   -98.031906   -98.031906 1.0454483e-13 
      0.0278      278    4143.0751   0.21822981 2.5062039e-12 -2.5203433e-13     57.10648     57.10648   -98.032481   -98.032481 1.7303985e-14 
      0.0279      279    4143.0751   0.21728354 2.1721056e-12 -1.1483213e-13     57.10648     57.10648   -98.033045   -98.033045 2.7047796e-13 
       0.028      280    4143.0751    0.2163393 2.4217989e-12 -5.0725879e-14     57.10648     57.10648   -98.033607   -98.033607 1.412099e-13 
      0.0281      281    4143.0751    0.2153874 2.5631049e-12 3.0475314e-13     57.10648     57.10648   -98.034174   -98.034174  4.27815e-14 
      0.0282      282    4143.0751   0.21444265 2.6876614e-12 2.9348375e-13     57.10648     57.10648   -98.034737   -98.034737 2.7672718e-15 
      0.0283      283    4143.0751   0.21349269 2.3624118e-12 1.0990531e-13     57.10648     57.10648   -98.035304   -98.035304 1.347457e-13 
      0.0284      284    4143.0751   0.21253267 2.2760417e-12 -3.1157503e-13     57.10648     57.10648   -98.035876   -98.035876 3.1605775e-14 
      0.0285      285    4143.0751   0.21158611 2.4980195e-12 -8.0659182e-14     57.10648     57.10648   -98.036439   -98.036439 1.2807191e-13 
      0.0286      286    4143.0751   0.21064455 2.8356131e-12 1.9383317e-13     57.10648     57.10648      -98.037      -98.037 2.2918443e-14 
      0.0287      287    4143.0751   0.20967836 2.2092649e-12 8.4940699e-13     57.10648     57.10648   -98.037576   -98.037576 4.188456e-14 
      0.0288      288    4143.0751   0.20872968 1.7686269e-12 6.6387689e-13     57.10648     57.10648   -98.038142   -98.038142 5.1774075e-15 
      0.0289      289    4143.0751   0.20777779 2.1227201e-12 2.9128542e-13     57.10648     57.10648   -98.038709   -98.038709 9.2614449e-14 
       0.029      290    4143.0751   0.20681803 2.362543e-12 3.9361533e-13     57.10648     57.10648    -98.03928    -98.03928 1.715348e-13 
      0.0291      291    4143.0751   0.20588197 2.3662381e-12 5.5574005e-14     57.10648     57.10648   -98.039837   -98.039837 -7.0285245e-14 
      0.0292      292    4143.0751   0.20491864 2.2245053e-12 2.3696124e-14     57.10648     57.10648   -98.040412   -98.040412 -2.4850752e-14 
      0.0293      293    4143.0751   0.20395331 1.9769232e-12 3.3630382e-14     57.10648     57.10648   -98.040988   -98.040988 -4.5432321e-14 
      0.0294      294    4143.0751   0.20300593 1.3376746e-12 8.3934072e-14     57.10648     57.10648   -98.041553   -98.041553 6.3312435e-14 
      0.0295      295    4143.0751   0.20204926 1.4138853e-12 -4.9777609e-13     57.10648     57.10648   -98.042122   -98.042122 2.4949977e-14 
      0.0296      296    4143.0751   0.20109362 1.5362585e-12 -7.3524971e-13     57.10648     57.10648   -98.042691   -98.042691 -6.2228238e-14 
      0.0297      297    4143.0751   0.20013728 1.5880589e-12 -5.8092618e-13     57.10648     57.10648   -98.043261   -98.043261 1.1890324e-13 
      0.0298      298    4143.0751   0.19917163 1.0207259e-12 -6.4592038e-13     57.10648     57.10648   -98.043838   -98.043838 8.1505549e-15 
      0.0299      299    4143.0751   0.19820875 1.2642789e-12 -1.3081185e-12     57.10648     57.10648   -98.044411   -98.044411 1.8370739e-13 
        0.03      300    4143.0751   0.19726332 1.7373634e-12 -1.4038773e-12     57.10648     57.10648   -98.044973   -98.044973 6.5957107e-14 
      0.0301      301    4143.0751   0.19629954 1.8391538e-12 -8.7226197e-13     57.10648     57.10648   -98.045547   -98.045547 7.5146328e-14 
      0.0302      302    4143.0751   0.19533468 1.5874501e-12 -1.1191349e-12     57.10648     57.10648   -98.046123   -98.046123 1.591403e-13 
      0.0303      303    4143.0751    0.1943822 1.622984e-12 -1.2079758e-12     57.10648     57.10648   -98.046691   -98.046691 1.3054118e-13 
      0.0304      304    4143.0751   0.19341211 1.8557875e-12 -3.5459545e-13     57.10648     57.10648   -98.047269   -98.047269 2.1518461e-13 
      0.0305      305    4143.0751   0.19246216 1.9418482e-12 -2.2614981e-13     57.10648     57.10648   -98.047834   -98.047834 1.6950716e-13 
      0.0306      306    4143.0751   0.19150366 1.9386241e-12 -8.9859292e-13     57.10648     57.10648   -98.048405   -98.048405 1.2966737e-13 
      0.0307      307    4143.0751   0.19052634 1.5221919e-12 -1.1357404e-12     57.10648     57.10648   -98.048989   -98.048989 -3.402486e-14 
      0.0308      308    4143.0751   0.18956895 1.549953e-12 -5.8833471e-13     57.10648     57.10648   -98.049559   -98.049559 1.6114866e-13 
      0.0309      309    4143.0751   0.18860631 2.1791046e-12 -2.4559878e-13     57.10648     57.10648   -98.050132   -98.050132 4.6578023e-14 
       0.031      310    4143.0751   0.18764092 1.8253097e-12 -4.6053149e-13     57.10648     57.10648   -98.050707   -98.050707 1.4215277e-13 
      0.0311      311    4143.0751    0.1866801 1.5445249e-12 -3.5733952e-13     57.10648     57.10648    -98.05128    -98.05128 -5.8473261e-15 
      0.0312      312    4143.0751   0.18571329 1.3739838e-12 -2.2315545e-13     57.10648     57.10648   -98.051857   -98.051857 1.0513621e-13 
      0.0313      313    4143.0751   0.18474061 1.6336587e-12 -3.9597432e-13     57.10648     57.10648   -98.052436   -98.052436 9.0824381e-14 
      0.0314      314    4143.0751   0.18378378 1.6641558e-12 -9.2605292e-13     57.10648     57.10648   -98.053006   -98.053006 5.4781893e-14 
      0.0315      315    4143.0751    0.1828242 1.3899636e-12 -1.5077381e-12     57.10648     57.10648   -98.053577   -98.053577 6.2707196e-15 
      0.0316      316    4143.0751   0.18184855 1.3603182e-12 -1.3211471e-12     57.10648     57.10648   -98.054159   -98.054159 7.6200654e-14 
      0.0317      317    4143.0751   0.18088751 1.3349256e-12 -9.3041906e-13     57.10648     57.10648   -98.054732   -98.054732 1.1643894e-13 
      0.0318      318    4143.0751    0.1799132 1.7649309e-12 -9.1210698e-13     57.10648     57.10648   -98.055313   -98.055313 1.0424661e-13 
      0.0319      319    4143.0751   0.17894611 1.5656742e-12 -8.8451063e-13     57.10648     57.10648   -98.055888   -98.055888 5.5545687e-14 
       0.032      320    4143.0751   0.17798965 1.4139812e-12 -7.8867832e-13     57.10648     57.10648   -98.056458   -98.056458 1.1886262e-13 
      0.0321      321    4143.0751   0.17700815 1.1325839e-12 -5.8126949e-13     57.10648     57.10648   -98.057043   -98.057043 7.7183912e-14 
      0.0322      322    4143.0751   0.17604056 1.3365571e-12 -9.425866e-13     57.10648     57.10648   -98.057621   -98.057621 1.0307396e-13 
      0.0323      323    4143.0751   0.17507687 1.8873325e-12 -1.3743379e-12     57.10648     57.10648   -98.058194   -98.058194 -8.2392299e-14 
      0.0324      324    4143.0751   0.17410481 1.6364106e-12 -1.1158746e-12     57.10648     57.10648   -98.058773   -98.058773 -4.4665023e-14 
      0.0325      325    4143.0751   0.17313792 1.8030481e-12 -1.4933418e-12     57.10648     57.10648   -98.059349   -98.059349 -6.6232075e-14 
      0.0326      326    4143.0751   0.17216651 2.3219151e-12 -2.1621382e-12     57.10648     57.10648   -98.059928   -98.059928 8.9759672e-14 
      0.0327      327    4143.0751   0.17118903 2.3041885e-12 -1.9879248e-12     57.10648     57.10648   -98.060511   -98.060511 -1.2173599e-13 
      0.0328      328    4143.0751     0.170221   1.6625e-12 -1.3562237e-12     57.10648     57.10648   -98.061088   -98.061088 1.0333144e-13 
      0.0329      329    4143.0751   0.16925806 1.492765e-12 -1.3348736e-12     57.10648     57.10648   -98.061661   -98.061661 7.8414276e-15 
       0.033      330    4143.0751    0.1682755 2.154011e-12 -1.6567721e-12     57.10648     57.10648   -98.062246   -98.062246 -2.6622884e-14 
      0.0331      331    4143.0751   0.16730518 1.7800273e-12 -1.5749649e-12     57.10648     57.10648   -98.062825   -98.062825 -8.7501004e-15 
      0.0332      332    4143.0751   0.16633463 1.2976948e-12 -1.3094091e-12     57.10648     57.10648   -98.063404   -98.063404 1.6685159e-13 
      0.0333      333    4143.0751   0.16535465 1.5830836e-12 -9.2824546e-13     57.10648     57.10648   -98.063987   -98.063987 1.3456824e-13 
      0.0334      334    4143.0751   0.16439358 1.8242536e-12 -9.4693039e-13     57.10648     57.10648   -98.064559   -98.064559 5.6619462e-14 
      0.0335      335    4143.0751   0.16341245 1.2586598e-12 -1.2471369e-12     57.10648     57.10648   -98.065144   -98.065144 1.2250091e-13 
      0.0336      336    4143.0751   0.16243186 9.6457988e-13 -1.3534048e-12     57.10648     57.10648   -98.065729   -98.065729 1.452276e-13 
      0.0337      337    4143.0751   0.16146647 1.1816868e-12 -1.1447853e-12     57.10648     57.10648   -98.066305   -98.066305 -2.4500524e-14 
      0.0338      338    4143.0751   0.16048999 1.2605437e-12 -8.1683824e-13     57.10648     57.10648   -98.066886   -98.066886 3.0424462e-14 
      0.0339      339    4143.0751   0.15951752 1.5861405e-12 -1.3901266e-12     57.10648     57.10648   -98.067464   -98.067464 8.7731045e-14 
       0.034      340    4143.0751   0.15854231 1.4156093e-12 -1.6273831e-12     57.10648     57.10648   -98.068046   -98.068046 7.1556884e-14 
      0.0341      341    4143.0751   0.15755843 1.2890414e-12 -1.4549559e-12     57.10648     57.10648   -98.068633   -98.068633 -5.8217871e-15 
      0.0342      342    4143.0751   0.15657989 1.5182626e-12 -1.075341e-12     57.10648     57.10648   -98.069216   -98.069216 8.6012804e-14 
      0.0343      343    4143.0751   0.15561389 1.6115383e-12 -1.2455466e-12     57.10648     57.10648   -98.069791   -98.069791 1.5602116e-13 
      0.0344      344    4143.0751    0.1546331 1.6997463e-12 -1.567738e-12     57.10648     57.10648   -98.070375   -98.070375 -1.056312e-13 
      0.0345      345    4143.0751   0.15365028 1.9066913e-12 -1.5429069e-12     57.10648     57.10648   -98.070961   -98.070961 2.4121943e-14 
      0.0346      346    4143.0751   0.15267881 2.174625e-12 -1.4521884e-12     57.10648     57.10648   -98.071541   -98.071541 4.9606508e-14 
      0.0347      347    4143.0751   0.15169456 2.5079517e-12 -1.3446013e-12     57.10648     57.10648   -98.072127   -98.072127 1.2495859e-14 
      0.0348      348    4143.0751   0.15073153 2.5190027e-12 -1.2257554e-12     57.10648     57.10648     -98.0727     -98.0727 4.6876318e-14 
      0.0349      349    4143.0751   0.14977598 1.9094372e-12 -1.719104e-12     57.10648     57.10648   -98.073269   -98.073269 -1.1517453e-13 
       0.035      350    4143.0751   0.14883658 1.9366444e-12 -1.6972885e-12     57.10648     57.10648    -98.07383    -98.07383 2.0481412e-14 
      0.0351      351    4143.0751   0.14797226 1.9851642e-12 -1.3140156e-12     57.10648     57.10648   -98.074345   -98.074345 7.568977e-14 
      0.0352      352    4143.0751   0.14719868 2.4920555e-12 -1.4826178e-12     57.10648     57.10648   -98.074806   -98.074806 -4.0687832e-14 
      0.0353      353    4143.0751    0.1465695 2.6425503e-12 -1.6542434e-12     57.10648     57.10648    -98.07518    -98.07518 -1.277022e-13 
      0.0354      354    4143.0751      0.14611 2.5273609e-12 -1.7338844e-12     57.10648     57.10648   -98.075454   -98.075454 -2.1979883e-13 
      0.0355      355    4143.0751   0.14580087 2.5010985e-12 -1.4705284e-12     57.10648     57.10648   -98.075639   -98.075639 -7.4873573e-14 
      0.0356      356    4143.0751   0.14560665 2.4311561e-12 -1.4496209e-12     57.10648     57.10648   -98.075755   -98.075755 1.8917197e-14 
      0.0357      357    4143.0751   0.14547519 2.5514057e-12 -1.4795111e-12     57.10648     57.10648   -98.075833   -98.075833 -7.5760102e-14 
Loop time of 19.3113 on 128 procs for 357 steps with 360800 atoms

94.7% CPU use with 128 MPI tasks x 1 OpenMP threads

Minimization stats:
  Stopping criterion = energy tolerance
  Energy initial, next-to-last, final = 
     -1486645.77951318  -1486647.82549146  -1486647.82549146
  Force two-norm initial, final = 7.1080974 5.2090752e-05
  Force max component initial, final = 0.19826945 3.8011648e-07
  Final line search alpha, max atom move = 1.0000000 3.8011648e-07
  Iterations, force evaluations = 357 714

MPI task timing breakdown:
Section |  min time  |  avg time  |  max time  |%varavg| %total
---------------------------------------------------------------
Pair    | 0.62282    | 2.5988     | 6.8488     | 154.2 | 13.46
Neigh   | 0          | 0          | 0          |   0.0 |  0.00
Comm    | 0.023723   | 0.70147    | 2.2152     | 112.8 |  3.63
Output  | 7.7945     | 7.89       | 7.934      |   1.5 | 40.86
Modify  | 0          | 0          | 0          |   0.0 |  0.00
Other   |            | 8.121      |            |       | 42.05

Nlocal:        2818.75 ave        9200 max           0 min
Histogram: 88 0 0 0 0 0 0 0 1 39
Nghost:        3899.30 ave       13317 max           0 min
Histogram: 87 1 0 0 0 0 2 0 0 38
Neighs:         0.00000 ave           0 max           0 min
Histogram: 128 0 0 0 0 0 0 0 0 0
FullNghs:      472488.0 ave  1.5456e+06 max           0 min
Histogram: 88 0 0 0 0 0 0 1 0 39

Total # of neighbors = 60478400
Ave neighs/atom = 167.62306
Neighbor list builds = 0
Dangerous builds = 0
Setting up Verlet run ...
  Unit style    : metal
  Current step  : 357
  Time step     : 0.0001
4143.075124 0.145475193502349
Per MPI rank memory allocation (min/avg/max) = 2.046 | 3.215 | 5.894 Mbytes
Time Step Lx Pxx Pxy Pxz Ly Lz Pyy Pzz Pyz 
           0      357    4143.0751   0.14547519 2.5429196e-12 -1.4984368e-12     57.10648     57.10648   -98.075833   -98.075833 -1.16265e-13 
4143.07553830753 0.14547517895483
      0.0001      358    4143.0755   0.14547518 2.5429193e-12 -1.4984366e-12     57.10648     57.10648   -98.075823   -98.075823 -1.1626498e-13 
4143.07595261511 0.0699515657209033
      0.0002      359     4143.076  0.069951566 2.4973023e-12 -1.3331525e-12     57.10648     57.10648   -98.120843   -98.120843 -1.0060403e-13 
4143.07636692272 -0.00557207441294233
      0.0003      360    4143.0764 -0.0055720744 2.3631159e-12 -1.6369455e-12     57.10648     57.10648   -98.165863   -98.165863 -1.0275285e-14 
4143.07678123038 -0.081095741366609
      0.0004      361    4143.0768 -0.081095741 2.470718e-12 -1.6910442e-12     57.10648     57.10648   -98.210883   -98.210883 1.2103335e-13 
4143.07719553808 -0.156619435200425
      0.0005      362    4143.0772  -0.15661944 2.4593588e-12 -1.7482892e-12     57.10648     57.10648   -98.255904   -98.255904 -9.5684372e-14 
4143.07760984582 -0.232143155982901
      0.0006      363    4143.0776  -0.23214316 2.5585778e-12 -1.7795728e-12     57.10648     57.10648   -98.300924   -98.300924 -3.3240772e-15 
4143.0780241536 -0.307666903376311
      0.0007      364     4143.078   -0.3076669 2.5792826e-12 -1.6556924e-12     57.10648     57.10648   -98.345944   -98.345944 4.9122594e-14 
4143.07843846143 -0.383190677853395
      0.0008      365    4143.0784  -0.38319068 2.4854024e-12 -1.7352492e-12     57.10648     57.10648   -98.390964   -98.390964 -2.7423304e-15 
4143.07885276929 -0.458714479090327
      0.0009      366    4143.0789  -0.45871448 2.3858588e-12 -1.6621408e-12     57.10648     57.10648   -98.435984   -98.435984 1.0454764e-13 
4143.0792670772 -0.534238307233783
       0.001      367    4143.0793  -0.53423831 2.6320897e-12 -1.7078851e-12     57.10648     57.10648   -98.481004   -98.481004 -8.5639995e-14 
4143.07968138514 -0.609762162032685
      0.0011      368    4143.0797  -0.60976216 2.4715308e-12 -1.5438431e-12     57.10648     57.10648   -98.526024   -98.526024 3.0746428e-14 
4143.08009569313 -0.685286043836968
      0.0012      369    4143.0801  -0.68528604 2.4315783e-12 -1.5854174e-12     57.10648     57.10648   -98.571045   -98.571045 1.0227826e-14 
4143.08051000116 -0.760809952454913
      0.0013      370    4143.0805  -0.76080995 2.4406957e-12 -1.6141813e-12     57.10648     57.10648   -98.616065   -98.616065 5.6345927e-14 
4143.08092430923 -0.836333888010159
      0.0014      371    4143.0809  -0.83633389 2.4779649e-12 -1.7008183e-12     57.10648     57.10648   -98.661085   -98.661085 3.0493919e-14 
4143.08133861735 -0.911857850283609
      0.0015      372    4143.0813  -0.91185785 2.3990821e-12 -1.6213935e-12     57.10648     57.10648   -98.706105   -98.706105 1.0126342e-13 
4143.0817529255 -0.987381839662617
      0.0016      373    4143.0818  -0.98738184 2.4312567e-12 -1.8206658e-12     57.10648     57.10648   -98.751125   -98.751125 -3.6673656e-14 
4143.0821672337 -1.06290585542078
      0.0017      374    4143.0822   -1.0629059 2.348879e-12 -1.7108248e-12     57.10648     57.10648   -98.796145   -98.796145 1.285508e-13 
4143.08258154193 -1.13842989830466
      0.0018      375    4143.0826   -1.1384299 2.4712149e-12 -1.5602971e-12     57.10648     57.10648   -98.841165   -98.841165 1.2573976e-13 
4143.08299585021 -1.21395396815498
      0.0019      376     4143.083    -1.213954 2.5193145e-12 -1.8089712e-12     57.10648     57.10648   -98.886185   -98.886185 4.2695249e-15 
4143.08341015853 -1.28947806468695
       0.002      377    4143.0834   -1.2894781 2.4135501e-12 -1.7227706e-12     57.10648     57.10648   -98.931205   -98.931205 5.7373352e-14 
4143.0838244669 -1.36500218815423
      0.0021      378    4143.0838   -1.3650022 2.3182591e-12 -1.6958433e-12     57.10648     57.10648   -98.976225   -98.976225 -1.0938921e-13 
4143.0842387753 -1.44052633842732
      0.0022      379    4143.0842   -1.4405263 2.6213628e-12 -1.7955117e-12     57.10648     57.10648   -99.021245   -99.021245 -8.5475237e-14 
4143.08465308374 -1.51605051562529
      0.0023      380    4143.0847   -1.5160505 2.527901e-12 -1.6686914e-12     57.10648     57.10648   -99.066265   -99.066265 1.6180408e-14 
4143.08506739223 -1.59157471954524
      0.0024      381    4143.0851   -1.5915747 2.6023288e-12 -1.7639548e-12     57.10648     57.10648   -99.111285   -99.111285 2.3020965e-14 
4143.08548170076 -1.66709895041629
      0.0025      382    4143.0855    -1.667099 2.4474342e-12 -1.6304622e-12     57.10648     57.10648   -99.156305   -99.156305 -7.5863077e-14 
4143.08589600933 -1.7426232080637
      0.0026      383    4143.0859   -1.7426232 2.3882481e-12 -1.6529943e-12     57.10648     57.10648   -99.201325   -99.201325 2.8796238e-14 
4143.08631031794 -1.8181474926426
      0.0027      384    4143.0863   -1.8181475 2.4776331e-12 -1.6357546e-12     57.10648     57.10648   -99.246345   -99.246345 -3.5283085e-14 
4143.08672462659 -1.89367180415772
      0.0028      385    4143.0867   -1.8936718 2.2844931e-12 -1.747632e-12     57.10648     57.10648   -99.291365   -99.291365 -5.0469712e-15 
4143.08713893528 -1.96919614240129
      0.0029      386    4143.0871   -1.9691961 2.286136e-12 -1.607888e-12     57.10648     57.10648   -99.336385   -99.336385 -5.931801e-14 
4143.08755324402 -2.04472050753045
       0.003      387    4143.0876   -2.0447205 2.5265164e-12 -1.7208983e-12     57.10648     57.10648   -99.381405   -99.381405 -1.3234918e-14 
4143.08796755279 -2.12024489945242
      0.0031      388     4143.088   -2.1202449 2.4722741e-12 -1.7331658e-12     57.10648     57.10648   -99.426424   -99.426424 -4.7951922e-14 
4143.08838186161 -2.19576931833154
      0.0032      389    4143.0884   -2.1957693 2.4665271e-12 -1.5918565e-12     57.10648     57.10648   -99.471444   -99.471444 1.2922509e-13 
4143.08879617047 -2.27129376388717
      0.0033      390    4143.0888   -2.2712938   2.5219e-12 -1.7170432e-12     57.10648     57.10648   -99.516464   -99.516464 2.3444746e-14 
4143.08921047937 -2.34681823621055
      0.0034      391    4143.0892   -2.3468182 2.4712942e-12 -1.7080157e-12     57.10648     57.10648   -99.561484   -99.561484 1.3112743e-14 
4143.08962478831 -2.42234273569247
      0.0035      392    4143.0896   -2.4223427 2.4372863e-12 -1.7705098e-12     57.10648     57.10648   -99.606504   -99.606504 6.4584788e-14 
4143.09003909729 -2.49786726192502
      0.0036      393      4143.09   -2.4978673 2.6150686e-12 -1.7455927e-12     57.10648     57.10648   -99.651524   -99.651524 -8.234522e-14 
4143.09045340632 -2.57339181505305
      0.0037      394    4143.0905   -2.5733918 2.433137e-12 -1.8554848e-12     57.10648     57.10648   -99.696544   -99.696544 3.6839035e-14 
4143.09086771538 -2.64891639475572
      0.0038      395    4143.0909   -2.6489164 2.4434864e-12 -1.6716718e-12     57.10648     57.10648   -99.741563   -99.741563 1.0484518e-13 
4143.09128202449 -2.72444100159324
      0.0039      396    4143.0913    -2.724441 2.4195117e-12 -1.6746157e-12     57.10648     57.10648   -99.786583   -99.786583 1.9379558e-16 
4143.09169633364 -2.79996563536762
       0.004      397    4143.0917   -2.7999656 2.5673169e-12 -1.7610543e-12     57.10648     57.10648   -99.831603   -99.831603 -2.8695984e-15 
4143.09211064283 -2.8754902957085
      0.0041      398    4143.0921   -2.8754903 2.3316493e-12 -1.5625202e-12     57.10648     57.10648   -99.876623   -99.876623 -1.8875485e-14 
4143.09252495206 -2.95101498310533
      0.0042      399    4143.0925    -2.951015 2.5063068e-12 -1.6352355e-12     57.10648     57.10648   -99.921643   -99.921643 -1.0912152e-14 
4143.09293926134 -3.02653969731879
      0.0043      400    4143.0929   -3.0265397 2.4669093e-12 -1.6788173e-12     57.10648     57.10648   -99.966662   -99.966662 -6.6112577e-15 
4143.09335357065 -3.1020644382491
      0.0044      401    4143.0934   -3.1020644 2.3629603e-12 -1.6547562e-12     57.10648     57.10648   -100.01168   -100.01168 1.2973789e-13 
4143.09376788001 -3.17758920594443
      0.0045      402    4143.0938   -3.1775892 2.4519568e-12 -1.7960837e-12     57.10648     57.10648    -100.0567    -100.0567 -1.4920832e-14 
4143.0941821894 -3.25311400074842
      0.0046      403    4143.0942    -3.253114 2.3033343e-12 -1.9202536e-12     57.10648     57.10648   -100.10172   -100.10172 9.3680032e-15 
4143.09459649884 -3.32863882232399
      0.0047      404    4143.0946   -3.3286388 2.5829512e-12 -1.650062e-12     57.10648     57.10648   -100.14674   -100.14674 1.2934043e-14 
4143.09501080832 -3.4041636707852
      0.0048      405     4143.095   -3.4041637 2.3921037e-12 -1.5537288e-12     57.10648     57.10648   -100.19176   -100.19176 1.0466407e-13 
4143.09542511785 -3.47968854597758
      0.0049      406    4143.0954   -3.4796885 2.5175775e-12 -1.7901037e-12     57.10648     57.10648   -100.23678   -100.23678 1.5463237e-13 
4143.09583942741 -3.55521344813422
       0.005      407    4143.0958   -3.5552134 2.528315e-12 -1.6595916e-12     57.10648     57.10648    -100.2818    -100.2818 9.8162711e-14 
4143.09625373701 -3.63073837699772
      0.0051      408    4143.0963   -3.6307384 2.553299e-12 -1.6061263e-12     57.10648     57.10648   -100.32682   -100.32682 8.5096211e-14 
4143.09666804666 -3.70626333282466
      0.0052      409    4143.0967   -3.7062633 2.3770165e-12 -1.8511905e-12     57.10648     57.10648   -100.37184   -100.37184 7.5055005e-14 
4143.09708235635 -3.78178831540917
      0.0053      410    4143.0971   -3.7817883 2.2300819e-12 -1.7430174e-12     57.10648     57.10648   -100.41686   -100.41686 8.3092168e-14 
4143.09749666608 -3.85731332489569
      0.0054      411    4143.0975   -3.8573133 2.5598259e-12 -1.8363177e-12     57.10648     57.10648   -100.46188   -100.46188 8.1915743e-14 
4143.09791097585 -3.93283836119598
      0.0055      412    4143.0979   -3.9328384 2.3995367e-12 -1.7367729e-12     57.10648     57.10648    -100.5069    -100.5069 -4.136581e-14 
4143.09832528566 -4.00836342456733
      0.0056      413    4143.0983   -4.0083634 2.4097447e-12 -1.6659801e-12     57.10648     57.10648   -100.55192   -100.55192 -2.6345429e-14 
4143.09873959551 -4.08388851455308
      0.0057      414    4143.0987   -4.0838885 2.5053635e-12 -1.6116035e-12     57.10648     57.10648   -100.59694   -100.59694 -1.1725227e-13 
4143.09915390541 -4.15941363140557
      0.0058      415    4143.0992   -4.1594136 2.4931537e-12 -1.6680155e-12     57.10648     57.10648   -100.64196   -100.64196 -1.4942949e-13 
4143.09956821534 -4.23493877516873
      0.0059      416    4143.0996   -4.2349388 2.3821787e-12 -1.6409382e-12     57.10648     57.10648   -100.68698   -100.68698 -8.0931826e-14 
4143.09998252532 -4.3104639458795
       0.006      417       4143.1   -4.3104639 2.4615489e-12 -1.7785107e-12     57.10648     57.10648     -100.732     -100.732 9.5196964e-14 
4143.10039683534 -4.38598914323746
      0.0061      418    4143.1004   -4.3859891 2.2849153e-12 -1.7729906e-12     57.10648     57.10648   -100.77702   -100.77702 2.9191182e-14 
4143.1008111454 -4.46151436765542
      0.0062      419    4143.1008   -4.4615144 2.5230876e-12 -1.627021e-12     57.10648     57.10648   -100.82204   -100.82204 4.2371422e-14 
4143.1012254555 -4.53703961871739
      0.0063      420    4143.1012   -4.5370396 2.472385e-12 -1.6866042e-12     57.10648     57.10648   -100.86706   -100.86706 -2.9429883e-15 
4143.10163976564 -4.61256489680781
      0.0064      421    4143.1016   -4.6125649 2.4319326e-12 -1.7936203e-12     57.10648     57.10648   -100.91208   -100.91208 -1.0574827e-13 
4143.10205407583 -4.68809020164622
      0.0065      422    4143.1021   -4.6880902 2.501214e-12 -1.7194972e-12     57.10648     57.10648   -100.95709   -100.95709 8.5820598e-14 
4143.10246838605 -4.76361553341951
      0.0066      423    4143.1025   -4.7636155 2.5217213e-12 -1.7477115e-12     57.10648     57.10648   -101.00211   -101.00211 -1.2011951e-13 
4143.10288269632 -4.83914089176535
      0.0067      424    4143.1029   -4.8391409 2.4579386e-12 -1.6226438e-12     57.10648     57.10648   -101.04713   -101.04713 5.3435941e-14 
4143.10329700663 -4.91466627726717
      0.0068      425    4143.1033   -4.9146663 2.4718562e-12 -1.6339241e-12     57.10648     57.10648   -101.09215   -101.09215 -1.6705081e-13 
4143.10371131698 -4.9901916896716
      0.0069      426    4143.1037   -4.9901917 2.4196985e-12 -1.7057857e-12     57.10648     57.10648   -101.13717   -101.13717 3.3432019e-14 
4143.10412562737 -5.06571712870273
       0.007      427    4143.1041   -5.0657171 2.3085973e-12 -1.71778e-12     57.10648     57.10648   -101.18219   -101.18219 1.2790581e-13 
4143.10453993781 -5.14124259476202
      0.0071      428    4143.1045   -5.1412426 2.539683e-12 -1.6746837e-12     57.10648     57.10648   -101.22721   -101.22721 -3.5795708e-14 
4143.10495424828 -5.21676808757763
      0.0072      429     4143.105   -5.2167681 2.5306713e-12 -1.8339553e-12     57.10648     57.10648   -101.27223   -101.27223 2.4231999e-14 
4143.1053685588 -5.29229360712361
      0.0073      430    4143.1054   -5.2922936 2.4093409e-12 -1.7829917e-12     57.10648     57.10648   -101.31725   -101.31725 7.5823507e-14 
4143.10578286935 -5.36781915381366
      0.0074      431    4143.1058   -5.3678192 2.4450171e-12 -1.6262496e-12     57.10648     57.10648   -101.36227   -101.36227 -1.9984936e-14 
4143.10619717995 -5.44334472691606
      0.0075      432    4143.1062   -5.4433447 2.4996579e-12 -1.7976002e-12     57.10648     57.10648   -101.40729   -101.40729 -1.2958126e-13 
4143.10661149059 -5.51887032715679
      0.0076      433    4143.1066   -5.5188703 2.391762e-12 -1.6022408e-12     57.10648     57.10648   -101.45231   -101.45231 -3.1505587e-14 
4143.10702580128 -5.59439595425432
      0.0077      434     4143.107    -5.594396 2.4604894e-12 -1.7219691e-12     57.10648     57.10648   -101.49733   -101.49733 -3.0149377e-14 
4143.107440112 -5.66992160812184
      0.0078      435    4143.1074   -5.6699216 2.4871852e-12 -1.7851077e-12     57.10648     57.10648   -101.54235   -101.54235 3.756082e-14 
4143.10785442276 -5.74544728893417
      0.0079      436    4143.1079   -5.7454473 2.459506e-12 -1.7288161e-12     57.10648     57.10648   -101.58737   -101.58737 -6.3786221e-14 
4143.10826873357 -5.82097299648028
       0.008      437    4143.1083    -5.820973 2.4033634e-12 -1.5441208e-12     57.10648     57.10648   -101.63239   -101.63239 -6.2875319e-15 
4143.10868304442 -5.89649873116112
      0.0081      438    4143.1087   -5.8964987 2.5280175e-12 -1.7404256e-12     57.10648     57.10648   -101.67741   -101.67741 3.0996849e-14 
4143.10909735531 -5.97202449239319
      0.0082      439    4143.1091   -5.9720245 2.5185749e-12 -1.7598365e-12     57.10648     57.10648   -101.72243   -101.72243 2.6228022e-15 
4143.10951166624 -6.04755028058327
      0.0083      440    4143.1095   -6.0475503 2.4009237e-12 -1.7260433e-12     57.10648     57.10648   -101.76744   -101.76744 7.3618738e-15 
4143.10992597721 -6.12307609553941
      0.0084      441    4143.1099   -6.1230761 2.4452236e-12 -1.7150793e-12     57.10648     57.10648   -101.81246   -101.81246 -9.1381342e-14 
4143.11034028822 -6.19860193742398
      0.0085      442    4143.1103   -6.1986019 2.4659647e-12 -1.7322356e-12     57.10648     57.10648   -101.85748   -101.85748 -7.6639272e-14 
4143.11075459928 -6.27412780642047
      0.0086      443    4143.1108   -6.2741278 2.4161823e-12 -1.8349946e-12     57.10648     57.10648    -101.9025    -101.9025 -6.1412346e-14 
4143.11116891037 -6.34965370193528
      0.0087      444    4143.1112   -6.3496537 2.6638904e-12 -1.6975331e-12     57.10648     57.10648   -101.94752   -101.94752 5.5890101e-14 
4143.11158322151 -6.42517962420216
      0.0088      445    4143.1116   -6.4251796 2.3826792e-12 -1.6387377e-12     57.10648     57.10648   -101.99254   -101.99254 -6.0595656e-14 
4143.11199753269 -6.50070557356643
      0.0089      446     4143.112   -6.5007056 2.4622958e-12 -1.6823343e-12     57.10648     57.10648   -102.03756   -102.03756 1.6107203e-13 
4143.11241184391 -6.57623154957795
       0.009      447    4143.1124   -6.5762315 2.4079718e-12 -1.7305765e-12     57.10648     57.10648   -102.08258   -102.08258 -2.5247942e-14 
4143.11282615517 -6.65175755267475
      0.0091      448    4143.1128   -6.6517576 2.4573893e-12 -1.8843011e-12     57.10648     57.10648    -102.1276    -102.1276 -4.0482196e-14 
4143.11324046648 -6.72728358251215
      0.0092      449    4143.1132   -6.7272836 2.4343599e-12 -1.6885939e-12     57.10648     57.10648   -102.17262   -102.17262 4.7557457e-14 
4143.11365477782 -6.80280963927142
      0.0093      450    4143.1137   -6.8028096 2.4570724e-12 -1.6473874e-12     57.10648     57.10648   -102.21764   -102.21764 -1.8533518e-13 
4143.11406908921 -6.8783357225717
      0.0094      451    4143.1141   -6.8783357 2.4984815e-12 -1.7271852e-12     57.10648     57.10648   -102.26266   -102.26266 -1.3568626e-13 
4143.11448340064 -6.95386183302866
      0.0095      452    4143.1145   -6.9538618 2.5803464e-12 -1.6774779e-12     57.10648     57.10648   -102.30768   -102.30768 5.3160139e-14 
4143.1148977121 -7.02938797036285
      0.0096      453    4143.1149    -7.029388 2.376472e-12 -1.6331323e-12     57.10648     57.10648   -102.35269   -102.35269 -1.400315e-15 
4143.11531202361 -7.10491413429607
      0.0097      454    4143.1153   -7.1049141 2.5281802e-12 -1.7566665e-12     57.10648     57.10648   -102.39771   -102.39771 2.9918463e-15 
4143.11572633517 -7.18044032516436
      0.0098      455    4143.1157   -7.1804403 2.368762e-12 -1.6478957e-12     57.10648     57.10648   -102.44273   -102.44273 2.1663428e-14 
4143.11614064676 -7.25596654293411
      0.0099      456    4143.1161   -7.2559665  2.32657e-12 -1.7171052e-12     57.10648     57.10648   -102.48775   -102.48775 -1.0982644e-15 
4143.11655495839 -7.33149278770863
        0.01      457    4143.1166   -7.3314928 2.4588544e-12 -1.6905655e-12     57.10648     57.10648   -102.53277   -102.53277 -7.1568809e-14 
4143.11696927007 -7.40701905902314
      0.0101      458     4143.117   -7.4070191 2.3799628e-12 -1.7012271e-12     57.10648     57.10648   -102.57779   -102.57779 -1.8366921e-14 
4143.11738358179 -7.48254535746568
      0.0102      459    4143.1174   -7.4825454 2.4946877e-12 -1.5582333e-12     57.10648     57.10648   -102.62281   -102.62281 -4.7139744e-14 
4143.11779789355 -7.55807168266814
      0.0103      460    4143.1178   -7.5580717 2.4647633e-12 -1.599748e-12     57.10648     57.10648   -102.66783   -102.66783 -1.1837161e-13 
4143.11821220535 -7.63359803471596
      0.0104      461    4143.1182    -7.633598 2.6060424e-12 -1.7085567e-12     57.10648     57.10648   -102.71285   -102.71285 4.3861241e-14 
4143.11862651719 -7.70912441359538
      0.0105      462    4143.1186   -7.7091244 2.5223693e-12 -1.7855933e-12     57.10648     57.10648   -102.75787   -102.75787 -4.653476e-14 
4143.11904082907 -7.78465081937307
      0.0106      463     4143.119   -7.7846508 2.5112727e-12 -1.7038304e-12     57.10648     57.10648   -102.80289   -102.80289 -2.7308293e-14 
4143.119455141 -7.86017725188988
      0.0107      464    4143.1195   -7.8601773 2.4809323e-12 -1.7482267e-12     57.10648     57.10648   -102.84791   -102.84791 -1.1802356e-14 
4143.11986945296 -7.93570371137299
      0.0108      465    4143.1199   -7.9357037 2.5430384e-12 -1.6881325e-12     57.10648     57.10648   -102.89292   -102.89292 4.8113785e-14 
4143.12028376497 -8.01123019756762
      0.0109      466    4143.1203   -8.0112302 2.3406334e-12 -1.650093e-12     57.10648     57.10648   -102.93794   -102.93794 -5.0676176e-14 
4143.12069807702 -8.08675671086817
       0.011      467    4143.1207   -8.0867567 2.3803753e-12 -1.5147144e-12     57.10648     57.10648   -102.98296   -102.98296 2.512047e-14 
4143.12111238911 -8.1622832507463
      0.0111      468    4143.1211   -8.1622833 2.5501417e-12 -1.8675069e-12     57.10648     57.10648   -103.02798   -103.02798 -4.2372781e-15 
4143.12152670124 -8.23780981754642
      0.0112      469    4143.1215   -8.2378098 2.4745779e-12 -1.7017861e-12     57.10648     57.10648     -103.073     -103.073 -6.7825212e-14 
4143.12194101342 -8.3133364111665
      0.0113      470    4143.1219   -8.3133364 2.4047313e-12 -1.6127813e-12     57.10648     57.10648   -103.11802   -103.11802 -1.1881786e-13 
4143.12235532563 -8.38886303183287
      0.0114      471    4143.1224    -8.388863 2.4192139e-12 -1.6358044e-12     57.10648     57.10648   -103.16304   -103.16304 4.6433724e-14 
4143.12276963789 -8.46438967910727
      0.0115      472    4143.1228   -8.4643897 2.2943326e-12 -1.68487e-12     57.10648     57.10648   -103.20806   -103.20806 -6.0096979e-14 
4143.12318395019 -8.53991635333865
      0.0116      473    4143.1232   -8.5399164 2.3048724e-12 -1.700724e-12     57.10648     57.10648   -103.25308   -103.25308 6.577363e-14 
4143.12359826252 -8.61544305465247
      0.0117      474    4143.1236   -8.6154431 2.5613988e-12 -1.7854491e-12     57.10648     57.10648    -103.2981    -103.2981 -8.6445343e-14 
4143.12401257491 -8.69096978234967
      0.0118      475     4143.124   -8.6909698 2.4771903e-12 -1.7190827e-12     57.10648     57.10648   -103.34311   -103.34311 7.3322396e-14 
4143.12442688733 -8.76649653732347
      0.0119      476    4143.1244   -8.7664965 2.3119353e-12 -1.7447503e-12     57.10648     57.10648   -103.38813   -103.38813 8.7409531e-16 
4143.12484119979 -8.84202331884448
       0.012      477    4143.1248   -8.8420233 2.4885889e-12 -1.6938297e-12     57.10648     57.10648   -103.43315   -103.43315 -1.1197045e-15 
4143.1252555123 -8.91755012733487
      0.0121      478    4143.1253   -8.9175501 2.4447749e-12 -1.8062649e-12     57.10648     57.10648   -103.47817   -103.47817 -3.7195815e-14 
4143.12566982484 -8.99307696276249
      0.0122      479    4143.1257    -8.993077 2.5875564e-12 -1.6814355e-12     57.10648     57.10648   -103.52319   -103.52319 1.5847705e-14 
4143.12608413743 -9.06860382488113
      0.0123      480    4143.1261   -9.0686038 2.4450496e-12 -1.7835932e-12     57.10648     57.10648   -103.56821   -103.56821 8.4634644e-14 
4143.12649845006 -9.14413071399318
      0.0124      481    4143.1265   -9.1441307 2.4285571e-12 -1.6037478e-12     57.10648     57.10648   -103.61323   -103.61323 -3.9673816e-14 
4143.12691276273 -9.21965762987042
      0.0125      482    4143.1269   -9.2196576 2.3086406e-12 -1.7254143e-12     57.10648     57.10648   -103.65825   -103.65825 -1.4001876e-13 
4143.12732707544 -9.29518457246033
      0.0126      483    4143.1273   -9.2951846 2.5510584e-12 -1.7296288e-12     57.10648     57.10648   -103.70327   -103.70327 5.554836e-14 
4143.12774138819 -9.37071154211437
      0.0127      484    4143.1277   -9.3707115 2.4785491e-12 -1.653718e-12     57.10648     57.10648   -103.74828   -103.74828 2.5867566e-14 
4143.12815570099 -9.44623853856028
      0.0128      485    4143.1282   -9.4462385 2.4083858e-12 -1.6931591e-12     57.10648     57.10648    -103.7933    -103.7933 -6.7543258e-14 
4143.12857001383 -9.52176556191358
      0.0129      486    4143.1286   -9.5217656 2.4653277e-12 -1.8032006e-12     57.10648     57.10648   -103.83832   -103.83832 6.960732e-14 
4143.1289843267 -9.59729261204041
       0.013      487     4143.129   -9.5972926 2.5205241e-12 -1.5627475e-12     57.10648     57.10648   -103.88334   -103.88334 -3.8169809e-14 
4143.12939863962 -9.67281968906101
      0.0131      488    4143.1294   -9.6728197 2.5415663e-12 -1.616087e-12     57.10648     57.10648   -103.92836   -103.92836 -8.3983286e-15 
4143.12981295258 -9.74834679282833
      0.0132      489    4143.1298   -9.7483468 2.4270695e-12 -1.6924246e-12     57.10648     57.10648   -103.97338   -103.97338 -5.7599762e-14 
4143.13022726559 -9.82387392338442
      0.0133      490    4143.1302   -9.8238739 2.5103853e-12 -1.6368437e-12     57.10648     57.10648    -104.0184    -104.0184 1.7858187e-14 
4143.13064157863 -9.89940108101245
      0.0134      491    4143.1306   -9.8994011 2.6055848e-12 -1.7281709e-12     57.10648     57.10648   -104.06342   -104.06342 -2.6915577e-14 
4143.13105589171 -9.97492826524424
      0.0135      492    4143.1311   -9.9749283 2.4838048e-12 -1.6455228e-12     57.10648     57.10648   -104.10844   -104.10844 4.3336932e-15 
4143.13147020484 -10.0504554766036
      0.0136      493    4143.1315   -10.050455 2.4623956e-12 -1.7073795e-12     57.10648     57.10648   -104.15345   -104.15345 4.004758e-14 
4143.13188451801 -10.1259827145278
      0.0137      494    4143.1319   -10.125983 2.4080922e-12 -1.5992701e-12     57.10648     57.10648   -104.19847   -104.19847 -9.3017549e-14 
4143.13229883122 -10.2015099795387
      0.0138      495    4143.1323    -10.20151 2.5189127e-12 -1.6070354e-12     57.10648     57.10648   -104.24349   -104.24349 -2.3426168e-13 
4143.13271314447 -10.277037271182
      0.0139      496    4143.1327   -10.277037 2.5120721e-12 -1.7414336e-12     57.10648     57.10648   -104.28851   -104.28851 -1.6980165e-13 
4143.13312745776 -10.3525645900756
       0.014      497    4143.1331   -10.352565 2.3506073e-12 -1.9530185e-12     57.10648     57.10648   -104.33353   -104.33353 -4.0926748e-14 
[...]
4147.17714048571 -748.474853652611
      0.9896    10253    4147.1771   -748.47485 2.5508669e-12 -1.6460429e-12     57.10648     57.10648   -543.02436   -543.02436 -5.3200001e-14 
4147.17755520344 -748.550643039944
      0.9897    10254    4147.1776   -748.55064 2.557405e-12 -1.686477e-12     57.10648     57.10648   -543.06927   -543.06927 -3.208311e-14 
4147.17796992122 -748.626432453963
      0.9898    10255     4147.178   -748.62643 2.5723174e-12 -1.6716839e-12     57.10648     57.10648   -543.11418   -543.11418 -1.1988722e-13 
4147.17838463904 -748.702221894955
      0.9899    10256    4147.1784   -748.70222 2.4217625e-12 -1.5718215e-12     57.10648     57.10648    -543.1591    -543.1591 -1.4813523e-13 
4147.17879935689 -748.778011363096
        0.99    10257    4147.1788   -748.77801 2.4580143e-12 -1.8163832e-12     57.10648     57.10648   -543.20401   -543.20401 8.1862261e-14 
4147.17921407479 -748.85380085783
      0.9901    10258    4147.1792    -748.8538 2.3744532e-12 -1.6395348e-12     57.10648     57.10648   -543.24892   -543.24892 -3.4521351e-14 
4147.17962879274 -748.929590379541
      0.9902    10259    4147.1796   -748.92959 2.4506683e-12 -1.6179096e-12     57.10648     57.10648   -543.29384   -543.29384 1.0179377e-13 
4147.18004351072 -749.005379928171
      0.9903    10260      4147.18   -749.00538 2.5449458e-12 -1.5904815e-12     57.10648     57.10648   -543.33875   -543.33875 -7.4243494e-14 
4147.18045822875 -749.081169503284
      0.9904    10261    4147.1805   -749.08117 2.2629582e-12 -1.6575087e-12     57.10648     57.10648   -543.38367   -543.38367 7.6316728e-14 
4147.18087294681 -749.156959105832
      0.9905    10262    4147.1809   -749.15696 2.4496513e-12 -1.7255317e-12     57.10648     57.10648   -543.42858   -543.42858 -1.3698689e-13 
4147.18128766492 -749.232748734849
      0.9906    10263    4147.1813   -749.23275 2.5343953e-12 -1.7242724e-12     57.10648     57.10648   -543.47349   -543.47349 -4.9105958e-14 
4147.18170238307 -749.308538390951
      0.9907    10264    4147.1817   -749.30854 2.3243328e-12 -1.5330924e-12     57.10648     57.10648   -543.51841   -543.51841 8.9808802e-15 
4147.18211710126 -749.384328073779
      0.9908    10265    4147.1821   -749.38433 2.4363895e-12 -1.7526239e-12     57.10648     57.10648   -543.56332   -543.56332 1.1342958e-13 
4147.18253181949 -749.460117783524
      0.9909    10266    4147.1825   -749.46012 2.372182e-12 -1.9014655e-12     57.10648     57.10648   -543.60823   -543.60823 -7.9687674e-15 
4147.18294653777 -749.535907520168
       0.991    10267    4147.1829   -749.53591 2.3204662e-12 -1.6004696e-12     57.10648     57.10648   -543.65315   -543.65315 -7.6675937e-14 
4147.18336125608 -749.611697283811
      0.9911    10268    4147.1834    -749.6117 2.5138091e-12 -1.5340032e-12     57.10648     57.10648   -543.69806   -543.69806 -8.3784521e-14 
4147.18377597444 -749.687487074133
      0.9912    10269    4147.1838   -749.68749 2.5633132e-12 -1.7667841e-12     57.10648     57.10648   -543.74298   -543.74298 -9.1995274e-14 
4147.18419069284 -749.76327689144
      0.9913    10270    4147.1842   -749.76328 2.5346976e-12 -1.672029e-12     57.10648     57.10648   -543.78789   -543.78789 -2.3022814e-13 
4147.18460541128 -749.839066735322
      0.9914    10271    4147.1846   -749.83907 2.3638131e-12 -1.6066297e-12     57.10648     57.10648    -543.8328    -543.8328 -1.0958825e-13 
4147.18502012976 -749.914856606619
      0.9915    10272     4147.185   -749.91486 2.4963458e-12 -1.6535635e-12     57.10648     57.10648   -543.87772   -543.87772 -1.4391982e-13 
4147.18543484828 -749.990646504378
      0.9916    10273    4147.1854   -749.99065 2.4020384e-12 -1.6067141e-12     57.10648     57.10648   -543.92263   -543.92263 1.0084419e-13 
4147.18584956685 -750.066436429174
      0.9917    10274    4147.1858   -750.06644 2.5928679e-12 -1.6534755e-12     57.10648     57.10648   -543.96754   -543.96754 -1.3510181e-13 
4147.18626428545 -750.142226380868
      0.9918    10275    4147.1863   -750.14223 2.4631178e-12 -1.7003935e-12     57.10648     57.10648   -544.01246   -544.01246 1.1892629e-13 
4147.1866790041 -750.218016359347
      0.9919    10276    4147.1867   -750.21802 2.452246e-12 -1.5738337e-12     57.10648     57.10648   -544.05737   -544.05737 -9.0152134e-14 
4147.18709372279 -750.293806364591
       0.992    10277    4147.1871   -750.29381 2.4127288e-12 -1.7141735e-12     57.10648     57.10648   -544.10228   -544.10228 -3.7409896e-14 
4147.18750844152 -750.369596396975
      0.9921    10278    4147.1875    -750.3696 2.4566165e-12 -1.6668438e-12     57.10648     57.10648    -544.1472    -544.1472 1.3018916e-13 
4147.18792316029 -750.445386456094
      0.9922    10279    4147.1879   -750.44539 2.3908244e-12 -1.7302605e-12     57.10648     57.10648   -544.19211   -544.19211 -5.6036738e-14 
4147.1883378791 -750.521176542158
      0.9923    10280    4147.1883   -750.52118 2.4034641e-12 -1.8613837e-12     57.10648     57.10648   -544.23703   -544.23703 1.1422167e-14 
4147.18875259796 -750.596966654981
      0.9924    10281    4147.1888   -750.59697 2.4867618e-12 -1.6268115e-12     57.10648     57.10648   -544.28194   -544.28194 -4.3180814e-14 
4147.18916731685 -750.672756794712
      0.9925    10282    4147.1892   -750.67276 2.4908531e-12 -1.6691923e-12     57.10648     57.10648   -544.32685   -544.32685 3.4905435e-14 
4147.18958203579 -750.748546961282
      0.9926    10283    4147.1896   -750.74855 2.4658636e-12 -1.5011792e-12     57.10648     57.10648   -544.37177   -544.37177 2.8627123e-14 
4147.18999675477 -750.824337154934
      0.9927    10284      4147.19   -750.82434 2.2277291e-12 -1.7066335e-12     57.10648     57.10648   -544.41668   -544.41668 -2.5346551e-14 
4147.19041147379 -750.900127375204
      0.9928    10285    4147.1904   -750.90013 2.335277e-12 -1.7248321e-12     57.10648     57.10648   -544.46159   -544.46159 4.8824624e-14 
4147.19082619285 -750.975917622411
      0.9929    10286    4147.1908   -750.97592 2.3595941e-12 -1.5165062e-12     57.10648     57.10648   -544.50651   -544.50651 1.609436e-14 
4147.19124091195 -751.051707896635
       0.993    10287    4147.1912   -751.05171 2.4350711e-12 -1.6512696e-12     57.10648     57.10648   -544.55142   -544.55142 2.1482094e-14 
4147.1916556311 -751.127498197486
      0.9931    10288    4147.1917    -751.1275 2.4942316e-12 -1.7782518e-12     57.10648     57.10648   -544.59633   -544.59633 8.0711505e-14 
4147.19207035029 -751.203288525344
      0.9932    10289    4147.1921   -751.20329 2.1814795e-12 -1.6206497e-12     57.10648     57.10648   -544.64125   -544.64125 3.2286066e-14 
4147.19248506951 -751.279078880099
      0.9933    10290    4147.1925   -751.27908 2.5226703e-12 -1.7187743e-12     57.10648     57.10648   -544.68616   -544.68616 7.909571e-14 
4147.19289978878 -751.354869261568
      0.9934    10291    4147.1929   -751.35487 2.4903502e-12 -1.6065801e-12     57.10648     57.10648   -544.73107   -544.73107 3.4931878e-14 
4147.19331450809 -751.43065967017
      0.9935    10292    4147.1933   -751.43066 2.6429122e-12 -1.6137404e-12     57.10648     57.10648   -544.77599   -544.77599 -7.3775102e-14 
4147.19372922745 -751.506450105373
      0.9936    10293    4147.1937   -751.50645 2.4345508e-12 -1.6948951e-12     57.10648     57.10648    -544.8209    -544.8209 6.0381352e-14 
4147.19414394684 -751.582240567482
      0.9937    10294    4147.1941   -751.58224 2.2163034e-12 -1.7650316e-12     57.10648     57.10648   -544.86581   -544.86581 4.5600268e-14 
4147.19455866627 -751.658031056591
      0.9938    10295    4147.1946   -751.65803 2.4277047e-12 -1.7190536e-12     57.10648     57.10648   -544.91073   -544.91073 -1.1531904e-13 
4147.19497338575 -751.733821572475
      0.9939    10296     4147.195   -751.73382 2.3651366e-12 -1.8128247e-12     57.10648     57.10648   -544.95564   -544.95564 -4.3673135e-14 
4147.19538810527 -751.809612115425
       0.994    10297    4147.1954   -751.80961 2.4157289e-12 -1.6558774e-12     57.10648     57.10648   -545.00056   -545.00056 1.1649418e-14 
4147.19580282483 -751.885402685103
      0.9941    10298    4147.1958    -751.8854 2.4974355e-12 -1.7735791e-12     57.10648     57.10648   -545.04547   -545.04547 -1.8371186e-14 
4147.19621754443 -751.961193281596
      0.9942    10299    4147.1962   -751.96119 2.5340187e-12 -1.746058e-12     57.10648     57.10648   -545.09038   -545.09038 1.8191808e-14 
4147.19663226407 -752.03698390519
      0.9943    10300    4147.1966   -752.03698 2.4706615e-12 -1.6673816e-12     57.10648     57.10648    -545.1353    -545.1353 2.9981746e-14 
4147.19704698376 -752.11277455557
      0.9944    10301     4147.197   -752.11277 2.4851997e-12 -1.74659e-12     57.10648     57.10648   -545.18021   -545.18021 -1.76796e-13 
4147.19746170348 -752.188565232621
      0.9945    10302    4147.1975   -752.18857 2.4157494e-12 -1.5986925e-12     57.10648     57.10648   -545.22512   -545.22512 -1.0576477e-13 
4147.19787642325 -752.26435593681
      0.9946    10303    4147.1979   -752.26436 2.6687639e-12 -1.6358697e-12     57.10648     57.10648   -545.27004   -545.27004 -1.0567619e-13 
4147.19829114306 -752.34014666775
      0.9947    10304    4147.1983   -752.34015 2.5385884e-12 -1.8057517e-12     57.10648     57.10648   -545.31495   -545.31495 -4.6501186e-14 
4147.19870586291 -752.415937425464
      0.9948    10305    4147.1987   -752.41594 2.5130526e-12 -1.6847035e-12     57.10648     57.10648   -545.35986   -545.35986 4.2337118e-14 
4147.1991205828 -752.491728210343
      0.9949    10306    4147.1991   -752.49173 2.4443892e-12 -1.6212907e-12     57.10648     57.10648   -545.40478   -545.40478 3.6035466e-15 
4147.19953530273 -752.567519021958
       0.995    10307    4147.1995   -752.56752 2.4544121e-12 -1.7865173e-12     57.10648     57.10648   -545.44969   -545.44969 -2.7204453e-15 
4147.1999500227 -752.643309860366
      0.9951    10308       4147.2   -752.64331 2.3410448e-12 -1.6543569e-12     57.10648     57.10648    -545.4946    -545.4946 -2.0347822e-14 
4147.20036474272 -752.719100725664
      0.9952    10309    4147.2004    -752.7191 2.3753364e-12 -1.799269e-12     57.10648     57.10648   -545.53952   -545.53952 1.0358583e-13 
4147.20077946278 -752.79489161774
      0.9953    10310    4147.2008   -752.79489 2.439884e-12 -1.8468492e-12     57.10648     57.10648   -545.58443   -545.58443 5.9273941e-14 
4147.20119418288 -752.870682536928
      0.9954    10311    4147.2012   -752.87068 2.4370217e-12 -1.6398176e-12     57.10648     57.10648   -545.62934   -545.62934 -2.653168e-15 
4147.20160890302 -752.946473482791
      0.9955    10312    4147.2016   -752.94647 2.5237151e-12 -1.5373263e-12     57.10648     57.10648   -545.67425   -545.67425 5.5521702e-14 
4147.2020236232 -753.022264455531
      0.9956    10313     4147.202   -753.02226 2.4055928e-12 -1.7089315e-12     57.10648     57.10648   -545.71917   -545.71917 8.0879168e-14 
4147.20243834342 -753.098055455136
      0.9957    10314    4147.2024   -753.09806 2.5343336e-12 -1.7736471e-12     57.10648     57.10648   -545.76408   -545.76408 3.7072224e-14 
4147.20285306369 -753.173846481515
      0.9958    10315    4147.2029   -753.17385 2.4979315e-12 -1.7369192e-12     57.10648     57.10648   -545.80899   -545.80899 -9.1484815e-14 
4147.20326778399 -753.249637534989
      0.9959    10316    4147.2033   -753.24964 2.2751535e-12 -1.7308896e-12     57.10648     57.10648   -545.85391   -545.85391 -6.561238e-15 
4147.20368250434 -753.325428615303
       0.996    10317    4147.2037   -753.32543 2.3871911e-12 -1.5651058e-12     57.10648     57.10648   -545.89882   -545.89882 -4.2880523e-14 
4147.20409722473 -753.401219722442
      0.9961    10318    4147.2041   -753.40122 2.3638119e-12 -1.7910786e-12     57.10648     57.10648   -545.94373   -545.94373 -1.2035228e-14 
4147.20451194516 -753.477010856585
      0.9962    10319    4147.2045   -753.47701 2.4581834e-12 -1.8632045e-12     57.10648     57.10648   -545.98865   -545.98865 -2.8114302e-14 
4147.20492666563 -753.552802017252
      0.9963    10320    4147.2049    -753.5528 2.5110392e-12 -1.6874776e-12     57.10648     57.10648   -546.03356   -546.03356 5.1106765e-14 
4147.20534138614 -753.628593204927
      0.9964    10321    4147.2053   -753.62859 2.4798713e-12 -1.7872517e-12     57.10648     57.10648   -546.07847   -546.07847 7.730162e-14 
4147.2057561067 -753.704384419533
      0.9965    10322    4147.2058   -753.70438 2.4325729e-12 -1.5869334e-12     57.10648     57.10648   -546.12339   -546.12339 9.5198609e-15 
4147.20617082729 -753.780175661138
      0.9966    10323    4147.2062   -753.78018 2.4269012e-12 -1.7491545e-12     57.10648     57.10648    -546.1683    -546.1683 -9.2654538e-14 
4147.20658554793 -753.855966929391
      0.9967    10324    4147.2066   -753.85597 2.384054e-12 -1.6970256e-12     57.10648     57.10648   -546.21321   -546.21321 -1.7701707e-13 
4147.20700026861 -753.931758224657
      0.9968    10325     4147.207   -753.93176 2.6148381e-12 -1.7127409e-12     57.10648     57.10648   -546.25813   -546.25813 -1.5467233e-14 
4147.20741498933 -754.007549546955
      0.9969    10326    4147.2074   -754.00755 2.3400956e-12 -1.626331e-12     57.10648     57.10648   -546.30304   -546.30304 1.3978524e-13 
4147.2078297101 -754.083340895747
       0.997    10327    4147.2078   -754.08334 2.3218788e-12 -1.5192357e-12     57.10648     57.10648   -546.34795   -546.34795 -9.162783e-15 
4147.2082444309 -754.159132271695
      0.9971    10328    4147.2082   -754.15913 2.5480423e-12 -1.6033927e-12     57.10648     57.10648   -546.39287   -546.39287 2.7007185e-14 
4147.20865915174 -754.234923674417
      0.9972    10329    4147.2087   -754.23492 2.5041813e-12 -1.8350295e-12     57.10648     57.10648   -546.43778   -546.43778 -8.0188739e-14 
4147.20907387263 -754.31071510393
      0.9973    10330    4147.2091   -754.31072 2.3184915e-12 -1.598038e-12     57.10648     57.10648   -546.48269   -546.48269 -9.7998378e-14 
4147.20948859356 -754.386506560437
      0.9974    10331    4147.2095   -754.38651 2.3641865e-12 -1.7597789e-12     57.10648     57.10648    -546.5276    -546.5276 -2.9301264e-14 
4147.20990331453 -754.462298043607
      0.9975    10332    4147.2099    -754.4623 2.4326387e-12 -1.7276762e-12     57.10648     57.10648   -546.57252   -546.57252 -1.1739548e-13 
4147.21031803554 -754.53808955391
      0.9976    10333    4147.2103   -754.53809 2.5130424e-12 -1.676962e-12     57.10648     57.10648   -546.61743   -546.61743 -7.5713118e-14 
4147.21073275659 -754.613881090998
      0.9977    10334    4147.2107   -754.61388 2.3700825e-12 -1.7939376e-12     57.10648     57.10648   -546.66234   -546.66234 -1.1329429e-13 
4147.21114747769 -754.689672654964
      0.9978    10335    4147.2111   -754.68967 2.5233349e-12 -1.7085788e-12     57.10648     57.10648   -546.70726   -546.70726 1.2764527e-13 
4147.21156219882 -754.765464245561
      0.9979    10336    4147.2116   -754.76546 2.3526354e-12  -1.7129e-12     57.10648     57.10648   -546.75217   -546.75217 -2.86683e-14 
4147.21197692 -754.841255863233
       0.998    10337     4147.212   -754.84126 2.3646644e-12 -1.811804e-12     57.10648     57.10648   -546.79708   -546.79708 -2.2695677e-14 
4147.21239164122 -754.917047507908
      0.9981    10338    4147.2124   -754.91705 2.4546445e-12 -1.6863671e-12     57.10648     57.10648     -546.842     -546.842 -1.6425426e-13 
4147.21280636248 -754.992839179345
      0.9982    10339    4147.2128   -754.99284 2.4900471e-12 -1.7772883e-12     57.10648     57.10648   -546.88691   -546.88691 1.8296011e-13 
4147.21322108378 -755.068630877752
      0.9983    10340    4147.2132   -755.06863 2.5679257e-12 -1.7060719e-12     57.10648     57.10648   -546.93182   -546.93182 6.5482476e-14 
4147.21363580512 -755.144422602982
      0.9984    10341    4147.2136   -755.14442 2.5187786e-12 -1.7439983e-12     57.10648     57.10648   -546.97673   -546.97673 -2.2559394e-14 
4147.21405052651 -755.220214354841
      0.9985    10342    4147.2141   -755.22021 2.4487943e-12 -1.6070642e-12     57.10648     57.10648   -547.02165   -547.02165 1.4062939e-14 
4147.21446524793 -755.296006133819
      0.9986    10343    4147.2145   -755.29601 2.524613e-12 -1.7914601e-12     57.10648     57.10648   -547.06656   -547.06656 -5.3719565e-14 
4147.2148799694 -755.371797939386
      0.9987    10344    4147.2149    -755.3718  2.45205e-12 -1.8259612e-12     57.10648     57.10648   -547.11147   -547.11147 -1.1507493e-13 
4147.21529469091 -755.447589772208
      0.9988    10345    4147.2153   -755.44759 2.2849945e-12 -1.581113e-12     57.10648     57.10648   -547.15639   -547.15639 -1.8954225e-14 
4147.21570941246 -755.523381631708
      0.9989    10346    4147.2157   -755.52338 2.5259059e-12 -1.7211953e-12     57.10648     57.10648    -547.2013    -547.2013 -3.9703725e-14 
4147.21612413405 -755.599173518172
       0.999    10347    4147.2161   -755.59917 2.4983615e-12 -1.6541789e-12     57.10648     57.10648   -547.24621   -547.24621 4.727133e-14 
4147.21653885568 -755.674965431374
      0.9991    10348    4147.2165   -755.67497 2.4500265e-12 -1.7934139e-12     57.10648     57.10648   -547.29112   -547.29112 2.7383316e-14 
4147.21695357736 -755.750757371516
      0.9992    10349     4147.217   -755.75076 2.3188313e-12 -1.7140996e-12     57.10648     57.10648   -547.33604   -547.33604 -1.78667e-13 
4147.21736829907 -755.826549338602
      0.9993    10350    4147.2174   -755.82655 2.4946594e-12 -1.609293e-12     57.10648     57.10648   -547.38095   -547.38095 -6.4889497e-14 
4147.21778302083 -755.902341332392
      0.9994    10351    4147.2178   -755.90234 2.4678915e-12 -1.7340984e-12     57.10648     57.10648   -547.42586   -547.42586 -1.1223389e-13 
4147.21819774263 -755.978133353252
      0.9995    10352    4147.2182   -755.97813 2.3988597e-12 -1.5112637e-12     57.10648     57.10648   -547.47078   -547.47078 -1.2221651e-13 
4147.21861246447 -756.053925400848
      0.9996    10353    4147.2186   -756.05393 2.4751394e-12 -1.6610389e-12     57.10648     57.10648   -547.51569   -547.51569 2.2198007e-14 
4147.21902718635 -756.129717475358
      0.9997    10354     4147.219   -756.12972 2.4828522e-12 -1.5627961e-12     57.10648     57.10648    -547.5606    -547.5606 2.6087198e-14 
4147.21944190828 -756.205509576866
      0.9998    10355    4147.2194   -756.20551 2.5512688e-12 -1.6929147e-12     57.10648     57.10648   -547.60551   -547.60551 -1.1873571e-13 
4147.21985663024 -756.281301705028
      0.9999    10356    4147.2199    -756.2813 2.4227747e-12  -1.7445e-12     57.10648     57.10648   -547.65043   -547.65043 2.0922205e-15 
4147.22027135225 -756.357093860084
           1    10357    4147.2203   -756.35709 2.3837529e-12 -1.5799112e-12     57.10648     57.10648   -547.69534   -547.69534 3.6974774e-14 
Loop time of 358.886 on 128 procs for 10000 steps with 360800 atoms

Performance: 0.241 ns/day, 99.690 hours/ns, 27.864 timesteps/s
95.0% CPU use with 128 MPI tasks x 1 OpenMP threads

MPI task timing breakdown:
Section |  min time  |  avg time  |  max time  |%varavg| %total
---------------------------------------------------------------
Pair    | 8.681      | 36.28      | 97.255     | 583.3 | 10.11
Neigh   | 0.0048858  | 0.0073842  | 0.009808   |   1.0 |  0.00
Comm    | 0.35954    | 12.022     | 37.019     | 470.7 |  3.35
Output  | 192.95     | 196.43     | 196.51     |   2.2 | 54.73
Modify  | 19.89      | 104.47     | 143.78     | 503.4 | 29.11
Other   |            | 9.668      |            |       |  2.69

Nlocal:        2818.75 ave        9200 max           0 min
Histogram: 88 0 0 0 0 0 0 0 1 39
Nghost:        3899.30 ave       13317 max           0 min
Histogram: 87 1 0 0 0 0 2 0 0 38
Neighs:         0.00000 ave           0 max           0 min
Histogram: 128 0 0 0 0 0 0 0 0 0
FullNghs:      472488.0 ave  1.5456e+06 max           0 min
Histogram: 88 0 0 0 0 0 0 1 0 39

Total # of neighbors = 60478400
Ave neighs/atom = 167.62306
Neighbor list builds = 2
Dangerous builds = 0
