LAMMPS (14 Dec 2021)
Reading data file ...
  orthogonal box = (0 0 0) to (5427.9709 57.10648 57.10648)
  64 by 1 by 1 MPI processor grid
  reading atoms ...
  720800 atoms
  read_data CPU = 1.602 seconds
800 atoms in group d1
800 atoms in group d2
800 atoms in group d3
800 atoms in group d4
800 atoms in group d5
800 atoms in group d6
800 atoms in group d7
800 atoms in group d8
800 atoms in group d9
800 atoms in group d10
800 atoms in group d11
800 atoms in group d12
800 atoms in group d13
800 atoms in group d14
800 atoms in group d15
800 atoms in group d16
800 atoms in group d17
800 atoms in group d18
800 atoms in group d19
800 atoms in group d20
800 atoms in group d21
800 atoms in group d22
800 atoms in group d23
800 atoms in group d24
800 atoms in group d25
800 atoms in group d26
800 atoms in group d27
800 atoms in group d28
800 atoms in group d29
800 atoms in group d30
800 atoms in group d31
WARNING: Using 'neigh_modify every 1 delay 0 check yes' setting during minimization (../min.cpp:187)
Neighbor list info ...
  update every 1 steps, delay 0 steps, check yes
  max neighbors/atom: 2000, page size: 100000
  master list distance cutoff = 7.6
  ghost atom cutoff = 7.6
  binsize = 3.8, bins = 1429 16 16
  1 neighbor lists, perpetual/occasional/extra = 1 0 0
  (1) pair eam/alloy, perpetual
      attributes: half, newton on
      pair build: half/bin/atomonly/newton
      stencil: half/bin/3d
      bin: standard
Setting up cg style minimization ...
  Unit style    : metal
  Current step  : 0
Per MPI rank memory allocation (min/avg/max) = 4.355 | 12.11 | 20.82 Mbytes
Step Temp E_pair E_mol TotEng Press 
       0            0   -2970722.4            0   -2970722.4   -39.963143 
       1            0   -2970724.3            0   -2970724.3   -46.892508 
       2            0   -2970724.4            0   -2970724.4   -48.396528 
       3            0   -2970724.5            0   -2970724.5   -47.831632 
       4            0   -2970724.5            0   -2970724.5   -48.159814 
       5            0   -2970724.5            0   -2970724.5   -48.628927 
       6            0   -2970724.5            0   -2970724.5    -48.79452 
       7            0   -2970724.5            0   -2970724.5   -48.875009 
       8            0   -2970724.5            0   -2970724.5    -48.94165 
       9            0   -2970724.5            0   -2970724.5   -49.026661 
      10            0   -2970724.5            0   -2970724.5   -49.074719 
      11            0   -2970724.5            0   -2970724.5   -49.107905 
      12            0   -2970724.5            0   -2970724.5    -49.13744 
      13            0   -2970724.5            0   -2970724.5   -49.171243 
      14            0   -2970724.5            0   -2970724.5   -49.194761 
      15            0   -2970724.5            0   -2970724.5   -49.212082 
      16            0   -2970724.5            0   -2970724.5   -49.228956 
      17            0   -2970724.5            0   -2970724.5   -49.246991 
      18            0   -2970724.5            0   -2970724.5   -49.260749 
      19            0   -2970724.5            0   -2970724.5   -49.271578 
      20            0   -2970724.5            0   -2970724.5   -49.282489 
      21            0   -2970724.5            0   -2970724.5   -49.293699 
      22            0   -2970724.5            0   -2970724.5    -49.30276 
      23            0   -2970724.5            0   -2970724.5   -49.310044 
      24            0   -2970724.5            0   -2970724.5    -49.31655 
      25            0   -2970724.5            0   -2970724.5   -49.322459 
      26            0   -2970724.5            0   -2970724.5   -49.328792 
      27            0   -2970724.5            0   -2970724.5   -49.334748 
      28            0   -2970724.5            0   -2970724.5   -49.339502 
      29            0   -2970724.5            0   -2970724.5    -49.34382 
      30            0   -2970724.5            0   -2970724.5   -49.348754 
      31            0   -2970724.5            0   -2970724.5   -49.353459 
      32            0   -2970724.5            0   -2970724.5   -49.357238 
      33            0   -2970724.5            0   -2970724.5   -49.360357 
      34            0   -2970724.5            0   -2970724.5   -49.364429 
      35            0   -2970724.5            0   -2970724.5   -49.368253 
      36            0   -2970724.5            0   -2970724.5   -49.371262 
      37            0   -2970724.5            0   -2970724.5   -49.374016 
      38            0   -2970724.5            0   -2970724.5    -49.37715 
      39            0   -2970724.5            0   -2970724.5    -49.37715 
Loop time of 6.66436 on 64 procs for 39 steps with 720800 atoms

99.9% CPU use with 64 MPI tasks x no OpenMP threads

Minimization stats:
  Stopping criterion = linesearch alpha is zero
  Energy initial, next-to-last, final = 
      -2970722.4157376  -2970724.46175216  -2970724.46175216
  Force two-norm initial, final = 7.1080974 0.0013972001
  Force max component initial, final = 0.19826945 2.0050408e-05
  Final line search alpha, max atom move = 0.00390625 7.8321904e-08
  Iterations, force evaluations = 39 93

MPI task timing breakdown:
Section |  min time  |  avg time  |  max time  |%varavg| %total
---------------------------------------------------------------
Pair    | 4.8633e-05 | 2.9841     | 6.2847     | 175.9 | 44.78
Neigh   | 0          | 0          | 0          |   0.0 |  0.00
Comm    | 2.9768e-05 | 0.16758    | 3.4528     | 142.9 |  2.51
Output  | 0.0059379  | 0.0061207  | 0.0066998  |   0.1 |  0.09
Modify  | 0          | 0          | 0          |   0.0 |  0.00
Other   |            | 3.507      |            |       | 52.62

Nlocal:        11262.5 ave       24000 max           0 min
Histogram: 32 2 0 0 0 0 0 0 0 30
Nghost:          10417 ave       22560 max           0 min
Histogram: 32 0 2 0 0 0 0 0 0 30
Neighs:         944988 ave 2.01662e+06 max           0 min
Histogram: 32 2 0 0 0 0 0 0 0 30

Total # of neighbors = 60479200
Ave neighs/atom = 83.90566
Neighbor list builds = 0
Dangerous builds = 0
WARNING: Using 'neigh_modify every 1 delay 0 check yes' setting during minimization (../min.cpp:187)
Setting up cg style minimization ...
  Unit style    : metal
  Current step  : 39
WARNING: Energy due to 3 extra global DOFs will be included in minimizer energies
Per MPI rank memory allocation (min/avg/max) = 4.355 | 12.11 | 20.82 Mbytes
Step Temp E_pair E_mol TotEng Press Volume 
      39            0   -2970724.5            0   -2970724.5    -49.37715     17701428 
      40            0   -2970724.5            0   -2970724.5    18.969652     17699992 
      41            0   -2970724.5            0   -2970724.5   0.67578574     17700376 
      42            0   -2970724.5            0   -2970724.5   -0.5677604     17700402 
      43            0   -2970724.5            0   -2970724.5  0.014475399     17700390 
      44            0   -2970724.5            0   -2970724.5 -0.0060778098     17700390 
      45            0   -2970724.5            0   -2970724.5  -0.00607781     17700390 
Loop time of 4.75634 on 64 procs for 6 steps with 720800 atoms

99.8% CPU use with 64 MPI tasks x no OpenMP threads

Minimization stats:
  Stopping criterion = linesearch alpha is zero
  Energy initial, next-to-last, final = 
     -2970724.46175217  -2970724.52230952  -2970724.52230952
  Force two-norm initial, final = 1162.6243 0.15599367
  Force max component initial, final = 822.0822 0.109416
  Final line search alpha, max atom move = 2.6240178e-07 2.8710952e-08
  Iterations, force evaluations = 6 47

MPI task timing breakdown:
Section |  min time  |  avg time  |  max time  |%varavg| %total
---------------------------------------------------------------
Pair    | 2.271e-05  | 1.6136     | 3.317      | 127.3 | 33.92
Neigh   | 0.00017392 | 0.58347    | 1.2745     |  80.0 | 12.27
Comm    | 0.00046367 | 0.088749   | 1.8004     | 102.5 |  1.87
Output  | 0.00062784 | 0.0007117  | 0.00081519 |   0.0 |  0.01
Modify  | 0          | 0          | 0          |   0.0 |  0.00
Other   |            | 2.47       |            |       | 51.93

Nlocal:        11262.5 ave       24000 max           0 min
Histogram: 32 2 0 0 0 0 0 0 0 30
Nghost:          10417 ave       22560 max           0 min
Histogram: 32 0 2 0 0 0 0 0 0 30
Neighs:         944988 ave 2.01758e+06 max           0 min
Histogram: 32 2 0 0 0 0 0 0 0 30

Total # of neighbors = 60479200
Ave neighs/atom = 83.90566
Neighbor list builds = 20
Dangerous builds = 19
WARNING: Using 'neigh_modify every 1 delay 0 check yes' setting during minimization (../min.cpp:187)
Setting up cg style minimization ...
  Unit style    : metal
  Current step  : 45
Per MPI rank memory allocation (min/avg/max) = 4.355 | 12.12 | 20.82 Mbytes
Step Temp E_pair E_mol TotEng Press 
      45            0   -2970724.5            0   -2970724.5 -0.0060778099 
      46            0   -2970724.5            0   -2970724.5 -0.018793648 
      47            0   -2970724.5            0   -2970724.5 -0.023370375 
      48            0   -2970724.5            0   -2970724.5 -0.025380438 
      49            0   -2970724.5            0   -2970724.5 -0.026941437 
      50            0   -2970724.5            0   -2970724.5 -0.028473958 
      51            0   -2970724.5            0   -2970724.5 -0.028473958 
Loop time of 1.76821 on 64 procs for 6 steps with 720800 atoms

100.0% CPU use with 64 MPI tasks x no OpenMP threads

Minimization stats:
  Stopping criterion = linesearch alpha is zero
  Energy initial, next-to-last, final = 
     -2970724.52230952  -2970724.52231508  -2970724.52231508
  Force two-norm initial, final = 0.0093997097 0.00086076019
  Force max component initial, final = 0.00024950533 1.9968277e-05
  Final line search alpha, max atom move = 0.015625 3.1200432e-07
  Iterations, force evaluations = 6 23

MPI task timing breakdown:
Section |  min time  |  avg time  |  max time  |%varavg| %total
---------------------------------------------------------------
Pair    | 1.1687e-05 | 0.78949    | 1.6755     |  90.4 | 44.65
Neigh   | 0          | 0          | 0          |   0.0 |  0.00
Comm    | 7.208e-06  | 0.047135   | 0.88696    |  69.9 |  2.67
Output  | 0.00085846 | 0.00092822 | 0.00099898 |   0.0 |  0.05
Modify  | 0          | 0          | 0          |   0.0 |  0.00
Other   |            | 0.9307     |            |       | 52.63

Nlocal:        11262.5 ave       24000 max           0 min
Histogram: 32 2 0 0 0 0 0 0 0 30
Nghost:          10417 ave       22560 max           0 min
Histogram: 32 0 2 0 0 0 0 0 0 30
Neighs:         944988 ave 2.01758e+06 max           0 min
Histogram: 32 2 0 0 0 0 0 0 0 30

Total # of neighbors = 60479200
Ave neighs/atom = 83.90566
Neighbor list builds = 0
Dangerous builds = 0
WARNING: One or more atoms are time integrated more than once (../modify.cpp:281)
Setting up Verlet run ...
  Unit style    : metal
  Current step  : 51
  Time step     : 0.001
0 1428.26082619725 1513.93008081338 1599.59732989982 1685.26457900425 1770.93182810868 1856.59907721312 1942.26632631755 2027.93357542198 2113.60082452641 2199.26807363084 2284.93532273527 2370.60257183971 2456.26982094414 2541.93707004857 2627.604319153 2713.27156825745 2798.93881736189 2884.6060664663 2970.27331557073 3055.94056467516 3141.6078137796 3227.27506288403 3312.94231198845 3398.60956109288 3484.27681019732 3569.94405930175 3655.61130840618 3741.27855751062 3826.94580661504 3912.61305570149 3998.28231031762
Per MPI rank memory allocation (min/avg/max) = 3.605 | 10.66 | 18.57 Mbytes
Step Temp E_pair E_mol TotEng Press 
      51            0   -2970724.5            0   -2970724.5 -0.028473958 
0.001 1428.26126601967 1513.93008081344 1599.59732989982 1685.26457900425 1770.93182810868 1856.59907721312 1942.26632631755 2027.93357542198 2113.60082452641 2199.26807363084 2284.93532273527 2370.60257183971 2456.26982094414 2541.93707004857 2627.604319153 2713.27156825745 2798.93881736189 2884.6060664663 2970.27331557073 3055.94056467516 3141.6078137796 3227.27506288403 3312.94231198845 3398.60956109288 3484.27681019732 3569.94405930175 3655.61130840618 3741.27855751062 3826.94580661504 3912.61305570142 3998.28231031745
      52 0.00099277944   -2970724.5            0   -2970724.4   0.12234976 
0.002 1428.26170583879 1513.93008081363 1599.59732989982 1685.26457900425 1770.93182810868 1856.59907721312 1942.26632631755 2027.93357542198 2113.60082452641 2199.26807363084 2284.93532273527 2370.60257183971 2456.26982094414 2541.93707004857 2627.604319153 2713.27156825745 2798.93881736189 2884.60606646629 2970.27331557073 3055.94056467516 3141.6078137796 3227.27506288403 3312.94231198845 3398.60956109288 3484.27681019732 3569.94405930175 3655.61130840618 3741.27855751062 3826.94580661504 3912.61305570124 3998.28231031695
      53 0.00099160586   -2970724.5            0   -2970724.4   0.26753948 
0.003 1428.26214565132 1513.93008081394 1599.59732989982 1685.26457900425 1770.93182810868 1856.59907721312 1942.26632631755 2027.93357542198 2113.60082452641 2199.26807363084 2284.93532273527 2370.60257183971 2456.26982094414 2541.93707004857 2627.604319153 2713.27156825745 2798.93881736189 2884.60606646629 2970.27331557073 3055.94056467516 3141.6078137796 3227.27506288403 3312.94231198845 3398.60956109288 3484.27681019732 3569.94405930175 3655.61130840618 3741.27855751062 3826.94580661504 3912.61305570093 3998.28231031611
      54 0.00099044779   -2970724.5            0   -2970724.4   0.41268187 
0.004 1428.26258545394 1513.93008081438 1599.59732989982 1685.26457900425 1770.93182810868 1856.59907721312 1942.26632631755 2027.93357542198 2113.60082452641 2199.26807363084 2284.93532273527 2370.60257183971 2456.26982094414 2541.93707004857 2627.604319153 2713.27156825745 2798.93881736189 2884.60606646629 2970.27331557073 3055.94056467516 3141.60781377959 3227.27506288403 3312.94231198845 3398.60956109288 3484.27681019732 3569.94405930175 3655.61130840618 3741.27855751062 3826.94580661504 3912.61305570048 3998.28231031494
      55 0.00098933418   -2970724.5            0   -2970724.4    0.5577754 
0.005 1428.26302524337 1513.93008081495 1599.59732989982 1685.26457900425 1770.93182810868 1856.59907721312 1942.26632631755 2027.93357542198 2113.60082452641 2199.26807363084 2284.93532273527 2370.60257183971 2456.26982094414 2541.93707004857 2627.604319153 2713.27156825745 2798.93881736189 2884.6060664663 2970.27331557073 3055.94056467516 3141.60781377959 3227.27506288402 3312.94231198845 3398.60956109288 3484.27681019732 3569.94405930175 3655.61130840618 3741.27855751062 3826.94580661505 3912.61305569991 3998.28231031344
      56 0.00098830484   -2970724.5            0   -2970724.4   0.70281881 
0.006 1428.26346501631 1513.93008081565 1599.59732989982 1685.26457900425 1770.93182810868 1856.59907721311 1942.26632631755 2027.93357542198 2113.60082452641 2199.26807363084 2284.93532273527 2370.60257183971 2456.26982094414 2541.93707004857 2627.604319153 2713.27156825745 2798.93881736189 2884.6060664663 2970.27331557073 3055.94056467516 3141.60781377959 3227.27506288403 3312.94231198845 3398.60956109288 3484.27681019732 3569.94405930175 3655.61130840618 3741.27855751062 3826.94580661505 3912.61305569922 3998.28231031161
      57 0.00098741019   -2970724.5            0   -2970724.4   0.84781087 
0.007 1428.26390476945 1513.93008081647 1599.59732989982 1685.26457900425 1770.93182810868 1856.59907721312 1942.26632631755 2027.93357542198 2113.60082452641 2199.26807363084 2284.93532273527 2370.60257183971 2456.26982094414 2541.93707004857 2627.604319153 2713.27156825745 2798.93881736189 2884.6060664663 2970.27331557073 3055.94056467516 3141.60781377959 3227.27506288403 3312.94231198845 3398.60956109288 3484.27681019732 3569.94405930175 3655.61130840618 3741.27855751062 3826.94580661505 3912.6130556984 3998.28231030944
      58 0.00098671085   -2970724.5            0   -2970724.4   0.99275065 
0.008 1428.26434449951 1513.93008081742 1599.59732989982 1685.26457900425 1770.93182810869 1856.59907721312 1942.26632631755 2027.93357542198 2113.60082452641 2199.26807363084 2284.93532273527 2370.60257183971 2456.26982094414 2541.93707004857 2627.604319153 2713.27156825745 2798.93881736189 2884.6060664663 2970.27331557073 3055.94056467516 3141.60781377959 3227.27506288402 3312.94231198845 3398.60956109288 3484.27681019732 3569.94405930175 3655.61130840618 3741.27855751062 3826.94580661504 3912.61305569744 3998.28231030695
      59 0.00098627719   -2970724.5            0   -2970724.4    1.1376375 
0.009 1428.26478420317 1513.9300808185 1599.59732989982 1685.26457900425 1770.93182810869 1856.59907721312 1942.26632631755 2027.93357542198 2113.60082452641 2199.26807363084 2284.93532273527 2370.60257183971 2456.26982094414 2541.93707004857 2627.604319153 2713.27156825745 2798.93881736189 2884.6060664663 2970.27331557073 3055.94056467516 3141.60781377959 3227.27506288402 3312.94231198845 3398.60956109288 3484.27681019732 3569.94405930175 3655.61130840618 3741.27855751062 3826.94580661504 3912.61305569636 3998.28231030415
      60 0.00098618882   -2970724.5            0   -2970724.4    1.2824708 
0.01 1428.26522387714 1513.93008081971 1599.59732989982 1685.26457900425 1770.93182810868 1856.59907721312 1942.26632631755 2027.93357542198 2113.60082452641 2199.26807363084 2284.93532273527 2370.60257183971 2456.26982094414 2541.93707004857 2627.604319153 2713.27156825745 2798.93881736189 2884.6060664663 2970.27331557073 3055.94056467516 3141.60781377959 3227.27506288402 3312.94231198845 3398.60956109288 3484.27681019732 3569.94405930175 3655.61130840618 3741.27855751062 3826.94580661504 3912.61305569516 3998.28231030104
      61 0.00098653399   -2970724.5            0   -2970724.4    1.4272503 
0.011 1428.26566351813 1513.93008082104 1599.59732989982 1685.26457900425 1770.93182810869 1856.59907721312 1942.26632631755 2027.93357542198 2113.60082452641 2199.26807363084 2284.93532273527 2370.60257183971 2456.26982094414 2541.93707004857 2627.604319153 2713.27156825745 2798.93881736189 2884.6060664663 2970.27331557073 3055.94056467516 3141.60781377959 3227.27506288403 3312.94231198845 3398.60956109289 3484.27681019732 3569.94405930175 3655.61130840618 3741.27855751062 3826.94580661504 3912.61305569382 3998.28231029759
      62 0.00098740893   -2970724.5            0   -2970724.4     1.571976 
0.012 1428.26610312284 1513.93008082251 1599.59732989982 1685.26457900425 1770.93182810868 1856.59907721311 1942.26632631755 2027.93357542198 2113.60082452641 2199.26807363084 2284.93532273527 2370.60257183971 2456.26982094414 2541.93707004857 2627.604319153 2713.27156825745 2798.93881736189 2884.6060664663 2970.27331557073 3055.94056467516 3141.60781377959 3227.27506288403 3312.94231198845 3398.60956109289 3484.27681019732 3569.94405930175 3655.61130840618 3741.27855751062 3826.94580661504 3912.61305569235 3998.28231029385
      63 0.00098891717   -2970724.5            0   -2970724.4    1.7166476 
0.013 1428.26654268796 1513.93008082412 1599.59732989982 1685.26457900425 1770.93182810868 1856.59907721311 1942.26632631755 2027.93357542198 2113.60082452641 2199.26807363084 2284.93532273527 2370.6025718397 2456.26982094414 2541.93707004857 2627.604319153 2713.27156825745 2798.93881736189 2884.6060664663 2970.27331557073 3055.94056467516 3141.60781377959 3227.27506288403 3312.94231198845 3398.60956109289 3484.27681019732 3569.94405930175 3655.61130840618 3741.27855751062 3826.94580661504 3912.61305569075 3998.2823102898
      64 0.00099116876   -2970724.5            0   -2970724.4    1.8612654 
0.014 1428.26698221021 1513.93008082585 1599.59732989982 1685.26457900425 1770.93182810869 1856.59907721312 1942.26632631755 2027.93357542198 2113.60082452641 2199.26807363084 2284.93532273527 2370.6025718397 2456.26982094414 2541.93707004857 2627.604319153 2713.27156825745 2798.93881736189 2884.6060664663 2970.27331557073 3055.94056467516 3141.6078137796 3227.27506288402 3312.94231198845 3398.60956109289 3484.27681019732 3569.94405930175 3655.61130840618 3741.27855751061 3826.94580661504 3912.61305568901 3998.28231028545
      65 0.00099427948   -2970724.5            0   -2970724.4    2.0058294 
0.015 1428.26742168629 1513.93008082772 1599.59732989982 1685.26457900425 1770.93182810869 1856.59907721311 1942.26632631755 2027.93357542198 2113.60082452641 2199.26807363084 2284.93532273527 2370.6025718397 2456.26982094414 2541.93707004857 2627.604319153 2713.27156825745 2798.93881736189 2884.6060664663 2970.27331557073 3055.94056467516 3141.6078137796 3227.27506288402 3312.94231198846 3398.60956109289 3484.27681019732 3569.94405930175 3655.61130840618 3741.27855751061 3826.94580661504 3912.61305568714 3998.2823102808
      66 0.00099837001   -2970724.5            0   -2970724.4    2.1503401 
0.016 1428.2678611129 1513.93008082972 1599.59732989982 1685.26457900425 1770.93182810868 1856.59907721312 1942.26632631755 2027.93357542198 2113.60082452641 2199.26807363084 2284.93532273527 2370.6025718397 2456.26982094414 2541.93707004857 2627.604319153 2713.27156825745 2798.93881736189 2884.6060664663 2970.27331557073 3055.94056467516 3141.6078137796 3227.27506288402 3312.94231198846 3398.60956109289 3484.27681019732 3569.94405930176 3655.61130840618 3741.27855751061 3826.94580661504 3912.61305568515 3998.28231027587
      67  0.001003565   -2970724.5            0   -2970724.4    2.2947981 
0.017 1428.26830048674 1513.93008083186 1599.59732989982 1685.26457900425 1770.93182810868 1856.59907721312 1942.26632631755 2027.93357542198 2113.60082452641 2199.26807363084 2284.93532273528 2370.6025718397 2456.26982094414 2541.93707004857 2627.604319153 2713.27156825745 2798.93881736189 2884.6060664663 2970.27331557073 3055.94056467516 3141.60781377959 3227.27506288402 3312.94231198845 3398.60956109289 3484.27681019732 3569.94405930175 3655.61130840618 3741.27855751061 3826.94580661504 3912.613055683 3998.28231027066
      68 0.0010099924   -2970724.5            0   -2970724.4    2.4392042 
0.018 1428.26873980453 1513.93008083414 1599.59732989982 1685.26457900425 1770.93182810869 1856.59907721312 1942.26632631755 2027.93357542198 2113.60082452641 2199.26807363084 2284.93532273528 2370.6025718397 2456.26982094414 2541.93707004857 2627.604319153 2713.27156825745 2798.93881736189 2884.6060664663 2970.27331557073 3055.94056467516 3141.60781377959 3227.27506288402 3312.94231198845 3398.60956109289 3484.27681019732 3569.94405930175 3655.61130840618 3741.27855751061 3826.94580661504 3912.61305568073 3998.28231026517
      69  0.001017782   -2970724.5            0   -2970724.4     2.583559 
0.019 1428.26917906296 1513.93008083655 1599.59732989982 1685.26457900425 1770.93182810868 1856.59907721312 1942.26632631755 2027.93357542198 2113.60082452641 2199.26807363084 2284.93532273528 2370.6025718397 2456.26982094414 2541.93707004857 2627.604319153 2713.27156825745 2798.93881736189 2884.6060664663 2970.27331557073 3055.94056467516 3141.60781377959 3227.27506288402 3312.94231198846 3398.6095610929 3484.27681019732 3569.94405930175 3655.61130840619 3741.27855751061 3826.94580661504 3912.61305567832 3998.28231025941
      70 0.0010270652   -2970724.4            0   -2970724.3    2.7278634 
0.02 1428.26961825874 1513.93008083911 1599.59732989982 1685.26457900425 1770.93182810868 1856.59907721312 1942.26632631755 2027.93357542198 2113.60082452641 2199.26807363084 2284.93532273528 2370.6025718397 2456.26982094414 2541.93707004857 2627.604319153 2713.27156825745 2798.93881736189 2884.6060664663 2970.27331557073 3055.94056467516 3141.60781377959 3227.27506288402 3312.94231198846 3398.6095610929 3484.27681019732 3569.94405930175 3655.61130840618 3741.27855751061 3826.94580661504 3912.61305567575 3998.2823102534
      71 0.0010379736   -2970724.4            0   -2970724.3    2.8721181 
0.021 1428.27005738859 1513.93008084181 1599.59732989982 1685.26457900425 1770.93182810868 1856.59907721312 1942.26632631755 2027.93357542198 2113.60082452641 2199.26807363084 2284.93532273527 2370.6025718397 2456.26982094414 2541.93707004857 2627.604319153 2713.27156825745 2798.93881736189 2884.6060664663 2970.27331557073 3055.94056467516 3141.60781377959 3227.27506288402 3312.94231198845 3398.60956109289 3484.27681019732 3569.94405930175 3655.61130840618 3741.27855751061 3826.94580661504 3912.61305567305 3998.28231024713
      72 0.0010506383   -2970724.4            0   -2970724.3    3.0163237 
0.022 1428.2704964492 1513.93008084465 1599.59732989982 1685.26457900425 1770.93182810868 1856.59907721312 1942.26632631755 2027.93357542198 2113.60082452641 2199.26807363084 2284.93532273527 2370.60257183971 2456.26982094413 2541.93707004857 2627.604319153 2713.27156825745 2798.93881736189 2884.6060664663 2970.27331557073 3055.94056467515 3141.60781377959 3227.27506288402 3312.94231198846 3398.6095610929 3484.27681019732 3569.94405930175 3655.61130840618 3741.27855751061 3826.94580661504 3912.61305567022 3998.28231024062
      73 0.0010651886   -2970724.4            0   -2970724.3    3.1604809 
0.023 1428.27093543729 1513.93008084764 1599.59732989982 1685.26457900425 1770.93182810868 1856.59907721311 1942.26632631755 2027.93357542198 2113.60082452641 2199.26807363084 2284.93532273528 2370.60257183971 2456.26982094413 2541.93707004857 2627.604319153 2713.27156825745 2798.93881736189 2884.6060664663 2970.27331557072 3055.94056467515 3141.60781377959 3227.27506288402 3312.94231198846 3398.6095610929 3484.27681019732 3569.94405930175 3655.61130840618 3741.27855751061 3826.94580661504 3912.61305566722 3998.28231023386
      74 0.0010817517   -2970724.4            0   -2970724.3    3.3045905 
0.024 1428.27137434956 1513.93008085077 1599.59732989982 1685.26457900425 1770.93182810869 1856.59907721312 1942.26632631755 2027.93357542198 2113.60082452642 2199.26807363084 2284.93532273527 2370.60257183971 2456.26982094413 2541.93707004857 2627.604319153 2713.27156825745 2798.93881736189 2884.60606646631 2970.27331557072 3055.94056467516 3141.60781377959 3227.27506288402 3312.94231198845 3398.6095610929 3484.27681019732 3569.94405930175 3655.61130840618 3741.2785575106 3826.94580661505 3912.6130556641 3998.28231022689
      75 0.0011004511   -2970724.4            0   -2970724.3    3.4486533 
0.025 1428.27181318273 1513.93008085405 1599.59732989982 1685.26457900425 1770.93182810868 1856.59907721311 1942.26632631755 2027.93357542198 2113.60082452642 2199.26807363084 2284.93532273527 2370.60257183971 2456.26982094413 2541.93707004857 2627.604319153 2713.27156825745 2798.93881736189 2884.60606646631 2970.27331557072 3055.94056467516 3141.60781377959 3227.27506288402 3312.94231198846 3398.6095610929 3484.27681019732 3569.94405930175 3655.61130840617 3741.2785575106 3826.94580661505 3912.61305566082 3998.28231021969
      76 0.0011214065   -2970724.4            0   -2970724.3    3.5926702 
0.026 1428.27225193349 1513.93008085748 1599.59732989982 1685.26457900425 1770.93182810869 1856.59907721311 1942.26632631755 2027.93357542198 2113.60082452642 2199.26807363084 2284.93532273527 2370.60257183972 2456.26982094413 2541.93707004856 2627.60431915301 2713.27156825745 2798.93881736189 2884.60606646631 2970.27331557071 3055.94056467516 3141.6078137796 3227.27506288401 3312.94231198846 3398.60956109291 3484.27681019732 3569.94405930175 3655.61130840617 3741.27855751059 3826.94580661504 3912.61305565738 3998.28231021228
      77 0.0011447323   -2970724.4            0   -2970724.3    3.7366421 
0.027 1428.27269059858 1513.93008086107 1599.59732989982 1685.26457900425 1770.93182810869 1856.59907721312 1942.26632631755 2027.93357542198 2113.60082452642 2199.26807363084 2284.93532273528 2370.60257183972 2456.26982094413 2541.93707004856 2627.60431915302 2713.27156825745 2798.93881736189 2884.60606646631 2970.27331557071 3055.94056467516 3141.6078137796 3227.275062884 3312.94231198845 3398.60956109291 3484.27681019731 3569.94405930175 3655.61130840617 3741.2785575106 3826.94580661504 3912.61305565379 3998.28231020466
      78 0.0011705371   -2970724.4            0   -2970724.3    3.8805699 
0.028 1428.27312917469 1513.93008086481 1599.59732989982 1685.26457900425 1770.93182810868 1856.59907721312 1942.26632631755 2027.93357542198 2113.60082452642 2199.26807363084 2284.93532273528 2370.60257183972 2456.26982094413 2541.93707004857 2627.60431915302 2713.27156825745 2798.93881736189 2884.60606646631 2970.27331557071 3055.94056467516 3141.6078137796 3227.275062884 3312.94231198845 3398.60956109291 3484.27681019731 3569.94405930175 3655.61130840617 3741.27855751059 3826.94580661504 3912.61305565008 3998.28231019685
      79 0.0011989229   -2970724.4            0   -2970724.3    4.0244544 
0.029 1428.27356765854 1513.93008086871 1599.59732989982 1685.26457900425 1770.93182810868 1856.59907721312 1942.26632631755 2027.93357542198 2113.60082452642 2199.26807363084 2284.93532273527 2370.60257183972 2456.26982094413 2541.93707004856 2627.60431915301 2713.27156825745 2798.93881736189 2884.60606646631 2970.27331557072 3055.94056467516 3141.6078137796 3227.27506288401 3312.94231198846 3398.60956109291 3484.27681019732 3569.94405930175 3655.61130840617 3741.27855751059 3826.94580661504 3912.61305564613 3998.28231018886
      80 0.0012299844   -2970724.4            0   -2970724.2    4.1682962 
0.03 1428.27400604685 1513.93008087276 1599.59732989982 1685.26457900425 1770.93182810868 1856.59907721312 1942.26632631755 2027.93357542198 2113.60082452642 2199.26807363084 2284.93532273527 2370.60257183971 2456.26982094413 2541.93707004857 2627.60431915301 2713.27156825745 2798.93881736189 2884.60606646631 2970.27331557072 3055.94056467515 3141.60781377959 3227.27506288401 3312.94231198846 3398.6095610929 3484.27681019732 3569.94405930175 3655.61130840617 3741.2785575106 3826.94580661504 3912.61305564211 3998.2823101807
      81 0.0012638084   -2970724.3            0   -2970724.2    4.3120959 
0.031 1428.27444433631 1513.93008087698 1599.59732989982 1685.26457900425 1770.93182810868 1856.59907721312 1942.26632631755 2027.93357542198 2113.60082452642 2199.26807363084 2284.93532273527 2370.60257183971 2456.26982094413 2541.93707004857 2627.604319153 2713.27156825745 2798.93881736189 2884.60606646631 2970.27331557073 3055.94056467516 3141.60781377959 3227.27506288402 3312.94231198845 3398.6095610929 3484.27681019732 3569.94405930176 3655.61130840617 3741.2785575106 3826.94580661504 3912.61305563789 3998.28231017236
      82 0.0013004732   -2970724.3            0   -2970724.2    4.4558538 
0.032 1428.27488252367 1513.93008088136 1599.59732989982 1685.26457900425 1770.93182810868 1856.59907721312 1942.26632631755 2027.93357542198 2113.60082452641 2199.26807363084 2284.93532273527 2370.60257183971 2456.26982094414 2541.93707004857 2627.604319153 2713.27156825745 2798.93881736189 2884.6060664663 2970.27331557073 3055.94056467516 3141.60781377959 3227.27506288402 3312.94231198846 3398.60956109289 3484.27681019732 3569.94405930176 3655.61130840617 3741.2785575106 3826.94580661504 3912.61305563351 3998.28231016387
      83 0.0013400479   -2970724.3            0   -2970724.2    4.5995704 
0.033 1428.27532060562 1513.93008088591 1599.59732989982 1685.26457900425 1770.93182810868 1856.59907721312 1942.26632631755 2027.93357542198 2113.60082452641 2199.26807363084 2284.93532273527 2370.60257183971 2456.26982094414 2541.93707004857 2627.604319153 2713.27156825745 2798.93881736189 2884.6060664663 2970.27331557073 3055.94056467515 3141.60781377959 3227.27506288402 3312.94231198846 3398.60956109289 3484.27681019732 3569.94405930176 3655.61130840617 3741.2785575106 3826.94580661505 3912.61305562896 3998.28231015524
      84 0.0013825923   -2970724.3            0   -2970724.2    4.7432458 
0.034 1428.27575857889 1513.93008089062 1599.59732989982 1685.26457900425 1770.93182810868 1856.59907721312 1942.26632631755 2027.93357542198 2113.60082452641 2199.26807363084 2284.93532273527 2370.6025718397 2456.26982094414 2541.93707004857 2627.604319153 2713.27156825745 2798.93881736189 2884.6060664663 2970.27331557073 3055.94056467516 3141.60781377959 3227.27506288402 3312.94231198846 3398.60956109289 3484.27681019732 3569.94405930176 3655.61130840617 3741.2785575106 3826.94580661505 3912.61305562425 3998.28231014647
      85 0.0014281559   -2970724.3            0   -2970724.2    4.8868803 
0.035 1428.27619644019 1513.9300808955 1599.59732989982 1685.26457900425 1770.93182810869 1856.59907721312 1942.26632631755 2027.93357542198 2113.60082452641 2199.26807363084 2284.93532273527 2370.60257183971 2456.26982094414 2541.93707004857 2627.604319153 2713.27156825745 2798.93881736189 2884.6060664663 2970.27331557073 3055.94056467516 3141.60781377959 3227.27506288402 3312.94231198846 3398.60956109289 3484.27681019732 3569.94405930176 3655.61130840617 3741.27855751061 3826.94580661504 3912.61305561936 3998.28231013757
      86 0.0014767782   -2970724.3            0   -2970724.2    5.0304739 
0.036 1428.27663418624 1513.93008090056 1599.59732989982 1685.26457900425 1770.93182810868 1856.59907721311 1942.26632631755 2027.93357542198 2113.60082452641 2199.26807363084 2284.93532273527 2370.60257183971 2456.26982094414 2541.93707004857 2627.604319153 2713.27156825745 2798.93881736189 2884.60606646629 2970.27331557073 3055.94056467516 3141.60781377959 3227.27506288402 3312.94231198846 3398.60956109289 3484.27681019732 3569.94405930176 3655.61130840617 3741.27855751061 3826.94580661504 3912.6130556143 3998.28231012857
      87  0.001528488   -2970724.3            0   -2970724.1    5.1740267 
0.037 1428.27707181377 1513.93008090579 1599.59732989982 1685.26457900425 1770.93182810868 1856.59907721312 1942.26632631755 2027.93357542198 2113.60082452641 2199.26807363084 2284.93532273527 2370.6025718397 2456.26982094414 2541.93707004857 2627.604319153 2713.27156825745 2798.93881736189 2884.6060664663 2970.27331557073 3055.94056467516 3141.60781377959 3227.27506288402 3312.94231198846 3398.60956109289 3484.27681019732 3569.94405930175 3655.61130840617 3741.27855751061 3826.94580661504 3912.61305560908 3998.28231011945
      88 0.0015833036   -2970724.3            0   -2970724.1    5.3175386 
0.038 1428.2775093195 1513.9300809112 1599.59732989982 1685.26457900425 1770.93182810869 1856.59907721311 1942.26632631755 2027.93357542198 2113.60082452641 2199.26807363084 2284.93532273527 2370.60257183971 2456.26982094414 2541.93707004857 2627.604319153 2713.27156825745 2798.93881736189 2884.6060664663 2970.27331557073 3055.94056467516 3141.60781377959 3227.27506288402 3312.94231198846 3398.60956109289 3484.27681019732 3569.94405930175 3655.61130840618 3741.27855751061 3826.94580661504 3912.61305560366 3998.28231011024
      89 0.0016412322   -2970724.3            0   -2970724.1    5.4610093 
0.039 1428.27794670014 1513.9300809168 1599.59732989982 1685.26457900425 1770.93182810869 1856.59907721311 1942.26632631755 2027.93357542198 2113.60082452641 2199.26807363084 2284.93532273527 2370.60257183971 2456.26982094413 2541.93707004857 2627.604319153 2713.27156825745 2798.93881736189 2884.6060664663 2970.27331557072 3055.94056467516 3141.60781377959 3227.27506288402 3312.94231198846 3398.60956109289 3484.27681019732 3569.94405930175 3655.61130840618 3741.27855751061 3826.94580661504 3912.61305559807 3998.28231010094
      90 0.0017022702   -2970724.3            0   -2970724.1    5.6044385 
0.04 1428.27838395242 1513.93008092257 1599.59732989982 1685.26457900425 1770.93182810868 1856.59907721312 1942.26632631755 2027.93357542198 2113.60082452641 2199.26807363084 2284.93532273527 2370.60257183971 2456.26982094414 2541.93707004857 2627.604319153 2713.27156825745 2798.93881736189 2884.60606646629 2970.27331557072 3055.94056467516 3141.60781377959 3227.27506288403 3312.94231198846 3398.60956109289 3484.27681019731 3569.94405930175 3655.61130840618 3741.27855751061 3826.94580661505 3912.6130555923 3998.28231009156
      91  0.001766403   -2970724.3            0   -2970724.1    5.7478255 
0.041 1428.27882107307 1513.93008092853 1599.59732989982 1685.26457900425 1770.93182810869 1856.59907721311 1942.26632631755 2027.93357542198 2113.60082452641 2199.26807363084 2284.93532273527 2370.60257183971 2456.26982094414 2541.93707004857 2627.604319153 2713.27156825745 2798.93881736189 2884.60606646629 2970.27331557072 3055.94056467516 3141.60781377959 3227.27506288403 3312.94231198845 3398.60956109289 3484.27681019731 3569.94405930175 3655.61130840618 3741.27855751061 3826.94580661505 3912.61305558633 3998.28231008213
      92 0.0018336056   -2970724.2            0   -2970724.1    5.8911697 
0.042 1428.27925805882 1513.93008093468 1599.59732989982 1685.26457900425 1770.93182810868 1856.59907721312 1942.26632631755 2027.93357542198 2113.60082452641 2199.26807363084 2284.93532273527 2370.60257183971 2456.26982094413 2541.93707004857 2627.604319153 2713.27156825745 2798.93881736189 2884.60606646629 2970.27331557073 3055.94056467516 3141.60781377959 3227.27506288403 3312.94231198846 3398.60956109289 3484.27681019731 3569.94405930175 3655.61130840618 3741.27855751061 3826.94580661504 3912.61305558018 3998.28231007262
      93 0.0019038419   -2970724.2            0   -2970724.1    6.0344703 
0.043 1428.27969490638 1513.93008094102 1599.59732989982 1685.26457900425 1770.93182810868 1856.59907721312 1942.26632631755 2027.93357542198 2113.60082452641 2199.26807363084 2284.93532273527 2370.60257183971 2456.26982094414 2541.93707004857 2627.604319153 2713.27156825745 2798.93881736189 2884.6060664663 2970.27331557073 3055.94056467516 3141.60781377959 3227.27506288402 3312.94231198846 3398.60956109289 3484.27681019731 3569.94405930175 3655.61130840618 3741.27855751061 3826.94580661504 3912.61305557384 3998.28231006308
      94 0.0019770657   -2970724.2            0     -2970724    6.1777262 
0.044 1428.2801316125 1513.93008094756 1599.59732989982 1685.26457900425 1770.93182810868 1856.59907721312 1942.26632631755 2027.93357542198 2113.60082452641 2199.26807363084 2284.93532273527 2370.60257183971 2456.26982094414 2541.93707004857 2627.604319153 2713.27156825745 2798.93881736189 2884.60606646629 2970.27331557073 3055.94056467516 3141.60781377959 3227.27506288402 3312.94231198846 3398.60956109289 3484.27681019732 3569.94405930175 3655.61130840617 3741.27855751061 3826.94580661504 3912.61305556731 3998.28231005351
      95 0.0020532207   -2970724.2            0     -2970724    6.3209364 
0.045 1428.28056817389 1513.9300809543 1599.59732989982 1685.26457900425 1770.93182810868 1856.59907721312 1942.26632631755 2027.93357542198 2113.60082452641 2199.26807363084 2284.93532273527 2370.60257183971 2456.26982094414 2541.93707004857 2627.604319153 2713.27156825745 2798.93881736189 2884.6060664663 2970.27331557073 3055.94056467516 3141.60781377959 3227.27506288402 3312.94231198846 3398.60956109289 3484.27681019732 3569.94405930175 3655.61130840617 3741.27855751061 3826.94580661504 3912.61305556057 3998.28231004391
      96 0.0021322407   -2970724.2            0     -2970724    6.4640996 
0.046 1428.28100458729 1513.93008096123 1599.59732989982 1685.26457900425 1770.93182810868 1856.59907721312 1942.26632631755 2027.93357542198 2113.60082452641 2199.26807363084 2284.93532273527 2370.60257183971 2456.26982094414 2541.93707004857 2627.604319153 2713.27156825745 2798.93881736189 2884.6060664663 2970.27331557072 3055.94056467516 3141.60781377959 3227.27506288402 3312.94231198846 3398.60956109289 3484.27681019732 3569.94405930175 3655.61130840618 3741.27855751061 3826.94580661504 3912.61305555364 3998.28231003429
      97 0.0022140502   -2970724.2            0     -2970724    6.6072145 
0.047 1428.28144084944 1513.93008096837 1599.59732989982 1685.26457900425 1770.93182810869 1856.59907721312 1942.26632631755 2027.93357542198 2113.60082452641 2199.26807363084 2284.93532273527 2370.60257183971 2456.26982094414 2541.93707004857 2627.604319153 2713.27156825745 2798.93881736189 2884.6060664663 2970.27331557073 3055.94056467516 3141.60781377959 3227.27506288402 3312.94231198846 3398.60956109289 3484.27681019732 3569.94405930175 3655.61130840618 3741.27855751061 3826.94580661504 3912.6130555465 3998.28231002466
      98 0.0022985651   -2970724.2            0     -2970724      6.75028 
0.048 1428.28187695707 1513.93008097572 1599.59732989982 1685.26457900425 1770.93182810868 1856.59907721312 1942.26632631755 2027.93357542198 2113.60082452641 2199.26807363084 2284.93532273528 2370.60257183971 2456.26982094414 2541.93707004857 2627.604319153 2713.27156825745 2798.93881736189 2884.60606646629 2970.27331557073 3055.94056467516 3141.60781377959 3227.27506288402 3312.94231198845 3398.60956109289 3484.27681019732 3569.94405930175 3655.61130840617 3741.27855751061 3826.94580661504 3912.61305553915 3998.28231001503
      99 0.0023856925   -2970724.2            0     -2970724    6.8932944 
0.049 1428.28231290691 1513.93008098327 1599.59732989982 1685.26457900425 1770.93182810869 1856.59907721312 1942.26632631755 2027.93357542198 2113.60082452641 2199.26807363084 2284.93532273528 2370.60257183971 2456.26982094414 2541.93707004857 2627.604319153 2713.27156825745 2798.93881736189 2884.60606646629 2970.27331557073 3055.94056467516 3141.60781377959 3227.27506288402 3312.94231198845 3398.60956109289 3484.27681019732 3569.94405930175 3655.61130840618 3741.27855751061 3826.94580661505 3912.6130555316 3998.28231000541
     100 0.0024753322   -2970724.2            0   -2970723.9    7.0362562 
0.05 1428.2827486957 1513.93008099104 1599.59732989982 1685.26457900425 1770.93182810869 1856.59907721311 1942.26632631755 2027.93357542198 2113.60082452641 2199.26807363084 2284.93532273528 2370.6025718397 2456.26982094414 2541.93707004857 2627.604319153 2713.27156825745 2798.93881736189 2884.60606646629 2970.27331557073 3055.94056467516 3141.60781377959 3227.27506288402 3312.94231198845 3398.60956109289 3484.27681019732 3569.94405930175 3655.61130840618 3741.27855751061 3826.94580661504 3912.61305552383 3998.28230999583
     101 0.0025673763   -2970724.2            0   -2970723.9    7.1791639 
0.051 1428.28318432019 1513.93008099902 1599.59732989982 1685.26457900425 1770.93182810868 1856.59907721312 1942.26632631755 2027.93357542198 2113.60082452641 2199.26807363084 2284.93532273528 2370.6025718397 2456.26982094414 2541.93707004857 2627.604319153 2713.27156825745 2798.93881736189 2884.6060664663 2970.27331557073 3055.94056467516 3141.60781377959 3227.27506288402 3312.94231198846 3398.60956109289 3484.27681019732 3569.94405930175 3655.61130840618 3741.27855751061 3826.94580661505 3912.61305551584 3998.28230998627
     102 0.0026617108   -2970724.2            0   -2970723.9    7.3220156 
0.052 1428.2836197771 1513.93008100722 1599.59732989982 1685.26457900425 1770.93182810868 1856.59907721312 1942.26632631755 2027.93357542198 2113.60082452641 2199.26807363084 2284.93532273527 2370.6025718397 2456.26982094414 2541.93707004857 2627.604319153 2713.27156825745 2798.93881736189 2884.6060664663 2970.27331557073 3055.94056467516 3141.60781377959 3227.27506288402 3312.94231198845 3398.60956109289 3484.27681019732 3569.94405930175 3655.61130840618 3741.27855751061 3826.94580661505 3912.61305550765 3998.28230997674
     103 0.0027582155   -2970724.1            0   -2970723.9    7.4648096 
0.053 1428.28405506318 1513.93008101565 1599.59732989982 1685.26457900425 1770.93182810868 1856.59907721312 1942.26632631755 2027.93357542198 2113.60082452641 2199.26807363084 2284.93532273527 2370.6025718397 2456.26982094414 2541.93707004857 2627.604319153 2713.27156825745 2798.93881736189 2884.6060664663 2970.27331557073 3055.94056467516 3141.60781377959 3227.27506288402 3312.94231198845 3398.60956109289 3484.27681019732 3569.94405930175 3655.61130840618 3741.27855751061 3826.94580661505 3912.61305549922 3998.28230996727
     104 0.0028567651   -2970724.1            0   -2970723.9    7.6075439 
0.054 1428.28449017519 1513.9300810243 1599.59732989982 1685.26457900425 1770.93182810868 1856.59907721312 1942.26632631755 2027.93357542198 2113.60082452641 2199.26807363084 2284.93532273527 2370.60257183971 2456.26982094414 2541.93707004857 2627.604319153 2713.27156825745 2798.93881736189 2884.6060664663 2970.27331557073 3055.94056467516 3141.60781377959 3227.27506288402 3312.94231198845 3398.60956109289 3484.27681019732 3569.94405930175 3655.61130840618 3741.27855751061 3826.94580661505 3912.61305549057 3998.28230995785
     105   0.00295723   -2970724.1            0   -2970723.9    7.7502166 
0.055 1428.28492510985 1513.93008103317 1599.59732989982 1685.26457900425 1770.93182810869 1856.59907721312 1942.26632631755 2027.93357542198 2113.60082452641 2199.26807363084 2284.93532273527 2370.60257183971 2456.26982094414 2541.93707004857 2627.604319153 2713.27156825745 2798.93881736189 2884.6060664663 2970.27331557073 3055.94056467516 3141.60781377959 3227.27506288402 3312.94231198845 3398.60956109289 3484.27681019732 3569.94405930175 3655.61130840618 3741.27855751061 3826.94580661505 3912.6130554817 3998.2823099485
     106 0.0030594766   -2970724.1            0   -2970723.8    7.8928258 
0.056 1428.28535986392 1513.93008104228 1599.59732989982 1685.26457900425 1770.93182810869 1856.59907721312 1942.26632631755 2027.93357542198 2113.60082452641 2199.26807363084 2284.93532273528 2370.60257183971 2456.26982094414 2541.93707004857 2627.604319153 2713.27156825745 2798.93881736189 2884.6060664663 2970.27331557073 3055.94056467516 3141.60781377959 3227.27506288402 3312.94231198845 3398.60956109289 3484.27681019732 3569.94405930175 3655.61130840618 3741.27855751061 3826.94580661505 3912.61305547258 3998.28230993922
     107 0.0031633683   -2970724.1            0   -2970723.8    8.0353696 
0.057 1428.28579443414 1513.93008105163 1599.59732989982 1685.26457900425 1770.93182810868 1856.59907721312 1942.26632631755 2027.93357542198 2113.60082452641 2199.26807363084 2284.93532273528 2370.60257183971 2456.26982094414 2541.93707004857 2627.604319153 2713.27156825745 2798.93881736189 2884.6060664663 2970.27331557073 3055.94056467516 3141.60781377959 3227.27506288402 3312.94231198845 3398.60956109289 3484.27681019732 3569.94405930175 3655.61130840618 3741.27855751061 3826.94580661505 3912.61305546324 3998.28230993003
     108 0.0032687665   -2970724.1            0   -2970723.8    8.1778458 
0.058 1428.28622881727 1513.93008106121 1599.59732989982 1685.26457900425 1770.93182810868 1856.59907721312 1942.26632631755 2027.93357542198 2113.60082452641 2199.26807363084 2284.93532273528 2370.60257183971 2456.26982094414 2541.93707004857 2627.604319153 2713.27156825745 2798.93881736189 2884.60606646629 2970.27331557073 3055.94056467516 3141.60781377959 3227.27506288402 3312.94231198845 3398.60956109289 3484.27681019732 3569.94405930175 3655.61130840618 3741.27855751061 3826.94580661505 3912.61305545365 3998.28230992092
     109 0.0033755307   -2970724.1            0   -2970723.8    8.3202522 
0.059 1428.28666301006 1513.93008107104 1599.59732989982 1685.26457900425 1770.93182810869 1856.59907721312 1942.26632631755 2027.93357542198 2113.60082452641 2199.26807363084 2284.93532273528 2370.6025718397 2456.26982094414 2541.93707004857 2627.604319153 2713.27156825745 2798.93881736189 2884.60606646629 2970.27331557073 3055.94056467516 3141.60781377959 3227.27506288402 3312.94231198845 3398.60956109289 3484.27681019732 3569.94405930175 3655.61130840618 3741.27855751061 3826.94580661505 3912.61305544383 3998.28230991192
     110 0.0034835199   -2970724.1            0   -2970723.8    8.4625887 
0.06 1428.28709700926 1513.93008108111 1599.59732989982 1685.26457900425 1770.93182810869 1856.59907721311 1942.26632631755 2027.93357542198 2113.60082452641 2199.26807363084 2284.93532273528 2370.6025718397 2456.26982094414 2541.93707004857 2627.604319153 2713.27156825745 2798.93881736189 2884.60606646629 2970.27331557073 3055.94056467516 3141.60781377959 3227.27506288402 3312.94231198846 3398.60956109289 3484.27681019732 3569.94405930175 3655.61130840618 3741.27855751061 3826.94580661505 3912.61305543376 3998.28230990301
     111 0.0035925928   -2970724.1            0   -2970723.7     8.604853 
0.061 1428.28753081163 1513.93008109143 1599.59732989982 1685.26457900425 1770.93182810869 1856.59907721311 1942.26632631755 2027.93357542198 2113.60082452641 2199.26807363084 2284.93532273527 2370.6025718397 2456.26982094414 2541.93707004857 2627.604319153 2713.27156825745 2798.93881736189 2884.60606646629 2970.27331557073 3055.94056467516 3141.60781377959 3227.27506288402 3312.94231198845 3398.60956109289 3484.27681019732 3569.94405930175 3655.61130840618 3741.27855751061 3826.94580661505 3912.61305542344 3998.28230989422
     112 0.0037026089   -2970724.1            0   -2970723.7    8.7470395 
0.062 1428.28796441392 1513.930081102 1599.59732989982 1685.26457900425 1770.93182810868 1856.59907721311 1942.26632631755 2027.93357542198 2113.60082452641 2199.26807363084 2284.93532273527 2370.6025718397 2456.26982094414 2541.93707004857 2627.604319153 2713.27156825745 2798.93881736189 2884.6060664663 2970.27331557073 3055.94056467516 3141.60781377959 3227.27506288402 3312.94231198845 3398.60956109289 3484.27681019732 3569.94405930175 3655.61130840618 3741.27855751061 3826.94580661504 3912.61305541287 3998.28230988556
     113 0.0038134289   -2970724.1            0   -2970723.7    8.8891453 
0.063 1428.28839781289 1513.93008111282 1599.59732989982 1685.26457900425 1770.93182810868 1856.59907721312 1942.26632631754 2027.93357542198 2113.60082452641 2199.26807363084 2284.93532273527 2370.6025718397 2456.26982094414 2541.93707004857 2627.604319153 2713.27156825745 2798.93881736189 2884.6060664663 2970.27331557073 3055.94056467516 3141.6078137796 3227.27506288402 3312.94231198846 3398.60956109289 3484.27681019732 3569.94405930175 3655.61130840617 3741.27855751061 3826.94580661504 3912.61305540205 3998.28230987702
     114 0.0039249157   -2970724.1            0   -2970723.7    9.0311686 
0.064 1428.28883100531 1513.9300811239 1599.59732989982 1685.26457900425 1770.93182810869 1856.59907721312 1942.26632631755 2027.93357542198 2113.60082452641 2199.26807363084 2284.93532273527 2370.60257183971 2456.26982094414 2541.93707004857 2627.604319153 2713.27156825745 2798.93881736189 2884.6060664663 2970.27331557073 3055.94056467516 3141.6078137796 3227.27506288402 3312.94231198846 3398.60956109289 3484.27681019732 3569.94405930175 3655.61130840617 3741.27855751061 3826.94580661504 3912.61305539097 3998.28230986862
     115 0.0040369344   -2970724.1            0   -2970723.7    9.1731075 
0.065 1428.28926398794 1513.93008113525 1599.59732989982 1685.26457900425 1770.93182810868 1856.59907721312 1942.26632631755 2027.93357542198 2113.60082452641 2199.26807363084 2284.93532273527 2370.60257183971 2456.26982094414 2541.93707004857 2627.604319153 2713.27156825745 2798.93881736189 2884.6060664663 2970.27331557073 3055.94056467516 3141.60781377959 3227.27506288402 3312.94231198846 3398.60956109289 3484.27681019732 3569.94405930175 3655.61130840618 3741.27855751061 3826.94580661504 3912.61305537961 3998.28230986035
     116 0.0041493536     -2970724            0   -2970723.7    9.3149562 
0.066 1428.28969675754 1513.93008114686 1599.59732989982 1685.26457900425 1770.93182810869 1856.59907721311 1942.26632631755 2027.93357542198 2113.60082452641 2199.26807363084 2284.93532273527 2370.60257183971 2456.26982094414 2541.93707004857 2627.604319153 2713.27156825745 2798.93881736189 2884.6060664663 2970.27331557072 3055.94056467516 3141.60781377959 3227.27506288402 3312.94231198846 3398.60956109289 3484.27681019732 3569.94405930175 3655.61130840618 3741.27855751061 3826.94580661504 3912.61305536801 3998.28230985224
     117 0.0042620457     -2970724            0   -2970723.6    9.4567117 
0.067 1428.29012931088 1513.93008115874 1599.59732989982 1685.26457900425 1770.93182810868 1856.59907721312 1942.26632631755 2027.93357542198 2113.60082452641 2199.26807363084 2284.93532273527 2370.60257183971 2456.26982094414 2541.93707004857 2627.604319153 2713.27156825745 2798.93881736189 2884.6060664663 2970.27331557072 3055.94056467516 3141.60781377959 3227.27506288403 3312.94231198846 3398.60956109289 3484.27681019731 3569.94405930175 3655.61130840618 3741.27855751061 3826.94580661505 3912.61305535613 3998.28230984429
     118 0.0043748871     -2970724            0   -2970723.6    9.5983732 
0.068 1428.29056164473 1513.93008117089 1599.59732989982 1685.26457900425 1770.93182810869 1856.59907721312 1942.26632631755 2027.93357542198 2113.60082452641 2199.26807363084 2284.93532273527 2370.60257183971 2456.26982094414 2541.93707004856 2627.604319153 2713.27156825745 2798.93881736189 2884.6060664663 2970.27331557072 3055.94056467516 3141.60781377959 3227.27506288402 3312.94231198846 3398.60956109289 3484.27681019732 3569.94405930175 3655.61130840618 3741.27855751061 3826.94580661505 3912.61305534398 3998.2823098365
     119 0.0044877591     -2970724            0   -2970723.6    9.7399415 
0.069 1428.29099375586 1513.93008118331 1599.59732989982 1685.26457900425 1770.93182810868 1856.59907721312 1942.26632631755 2027.93357542198 2113.60082452641 2199.26807363084 2284.93532273527 2370.60257183971 2456.26982094414 2541.93707004856 2627.604319153 2713.27156825745 2798.93881736189 2884.6060664663 2970.27331557072 3055.94056467516 3141.60781377959 3227.27506288403 3312.94231198846 3398.60956109289 3484.27681019731 3569.94405930175 3655.61130840618 3741.27855751061 3826.94580661505 3912.61305533156 3998.28230982888
     120 0.0046005484     -2970724            0   -2970723.6    9.8814141 
0.07 1428.29142564104 1513.93008119601 1599.59732989982 1685.26457900425 1770.93182810868 1856.59907721312 1942.26632631755 2027.93357542198 2113.60082452641 2199.26807363084 2284.93532273527 2370.60257183971 2456.26982094414 2541.93707004856 2627.604319153 2713.27156825745 2798.93881736189 2884.6060664663 2970.27331557072 3055.94056467516 3141.60781377959 3227.27506288403 3312.94231198846 3398.60956109289 3484.27681019732 3569.94405930175 3655.61130840618 3741.27855751061 3826.94580661505 3912.61305531886 3998.28230982144
     121  0.004713147     -2970724            0   -2970723.6     10.02279 
0.071 1428.29185729705 1513.93008120899 1599.59732989982 1685.26457900425 1770.93182810869 1856.59907721312 1942.26632631755 2027.93357542198 2113.60082452641 2199.26807363084 2284.93532273527 2370.60257183971 2456.26982094414 2541.93707004857 2627.604319153 2713.27156825745 2798.93881736189 2884.6060664663 2970.27331557072 3055.94056467516 3141.60781377959 3227.27506288403 3312.94231198846 3398.60956109289 3484.27681019732 3569.94405930175 3655.61130840618 3741.27855751061 3826.94580661504 3912.61305530587 3998.28230981417
     122 0.0048254529     -2970724            0   -2970723.5    10.164067 
0.072 1428.29228872067 1513.93008122226 1599.59732989982 1685.26457900425 1770.93182810868 1856.59907721312 1942.26632631755 2027.93357542198 2113.60082452641 2199.26807363084 2284.93532273527 2370.60257183971 2456.26982094414 2541.93707004857 2627.604319153 2713.27156825745 2798.93881736189 2884.6060664663 2970.27331557073 3055.94056467516 3141.60781377959 3227.27506288402 3312.94231198846 3398.60956109289 3484.27681019732 3569.94405930175 3655.61130840618 3741.27855751061 3826.94580661504 3912.61305529261 3998.2823098071
     123 0.0049373704     -2970724            0   -2970723.5    10.305245 
0.073 1428.29271990867 1513.93008123581 1599.59732989982 1685.26457900425 1770.93182810868 1856.59907721312 1942.26632631755 2027.93357542198 2113.60082452641 2199.26807363084 2284.93532273528 2370.60257183971 2456.26982094413 2541.93707004857 2627.604319153 2713.27156825745 2798.93881736189 2884.6060664663 2970.27331557073 3055.94056467516 3141.60781377959 3227.27506288402 3312.94231198846 3398.60956109289 3484.27681019732 3569.94405930175 3655.61130840618 3741.27855751061 3826.94580661504 3912.61305527905 3998.28230980021
     124 0.0050488104     -2970724            0   -2970723.5    10.446323 
0.074 1428.29315085784 1513.93008124966 1599.59732989982 1685.26457900425 1770.93182810868 1856.59907721312 1942.26632631755 2027.93357542198 2113.60082452641 2199.26807363084 2284.93532273527 2370.60257183971 2456.26982094414 2541.93707004857 2627.604319153 2713.27156825745 2798.93881736189 2884.6060664663 2970.27331557073 3055.94056467516 3141.60781377959 3227.27506288402 3312.94231198846 3398.60956109289 3484.27681019733 3569.94405930175 3655.61130840618 3741.27855751061 3826.94580661504 3912.61305526521 3998.28230979354
     125 0.0051596901     -2970724            0   -2970723.5      10.5873 
0.075 1428.29358156496 1513.9300812638 1599.59732989982 1685.26457900425 1770.93182810868 1856.59907721312 1942.26632631755 2027.93357542198 2113.60082452641 2199.26807363084 2284.93532273527 2370.60257183971 2456.26982094414 2541.93707004857 2627.604319153 2713.27156825745 2798.93881736189 2884.6060664663 2970.27331557073 3055.94056467516 3141.60781377959 3227.27506288402 3312.94231198846 3398.60956109289 3484.27681019732 3569.94405930176 3655.61130840618 3741.27855751061 3826.94580661504 3912.61305525107 3998.28230978707
     126 0.0052699338     -2970724            0   -2970723.5    10.728174 
0.076 1428.29401202682 1513.93008127824 1599.59732989982 1685.26457900425 1770.93182810868 1856.59907721312 1942.26632631755 2027.93357542198 2113.60082452641 2199.26807363084 2284.93532273527 2370.60257183971 2456.26982094414 2541.93707004857 2627.604319153 2713.27156825745 2798.93881736189 2884.6060664663 2970.27331557073 3055.94056467516 3141.60781377959 3227.27506288402 3312.94231198846 3398.60956109289 3484.27681019732 3569.94405930176 3655.61130840617 3741.2785575106 3826.94580661504 3912.61305523663 3998.28230978081
     127 0.0053794727     -2970724            0   -2970723.5    10.868945 
0.077 1428.29444224021 1513.93008129298 1599.59732989982 1685.26457900425 1770.93182810868 1856.59907721312 1942.26632631755 2027.93357542198 2113.60082452641 2199.26807363084 2284.93532273527 2370.60257183971 2456.26982094414 2541.93707004857 2627.604319153 2713.27156825745 2798.93881736189 2884.6060664663 2970.27331557073 3055.94056467516 3141.60781377959 3227.27506288402 3312.94231198846 3398.60956109289 3484.27681019732 3569.94405930176 3655.61130840617 3741.2785575106 3826.94580661504 3912.61305522189 3998.28230977478
     128 0.0054882447   -2970723.9            0   -2970723.4    11.009613 
0.078 1428.29487220191 1513.93008130802 1599.59732989982 1685.26457900425 1770.93182810868 1856.59907721312 1942.26632631755 2027.93357542198 2113.60082452642 2199.26807363084 2284.93532273527 2370.60257183971 2456.26982094414 2541.93707004857 2627.604319153 2713.27156825745 2798.93881736189 2884.6060664663 2970.27331557073 3055.94056467515 3141.60781377959 3227.27506288402 3312.94231198845 3398.60956109289 3484.27681019732 3569.94405930176 3655.61130840617 3741.2785575106 3826.94580661504 3912.61305520684 3998.28230976896
     129  0.005596195   -2970723.9            0   -2970723.4    11.150176 
0.079 1428.29530190873 1513.93008132336 1599.59732989982 1685.26457900425 1770.93182810869 1856.59907721311 1942.26632631755 2027.93357542198 2113.60082452642 2199.26807363084 2284.93532273528 2370.60257183971 2456.26982094414 2541.93707004857 2627.604319153 2713.27156825745 2798.93881736189 2884.60606646631 2970.27331557072 3055.94056467516 3141.60781377959 3227.27506288402 3312.94231198845 3398.60956109289 3484.27681019732 3569.94405930175 3655.61130840617 3741.2785575106 3826.94580661504 3912.61305519152 3998.28230976339
     130 0.0057032753   -2970723.9            0   -2970723.4    11.290635 
0.08 1428.29573135745 1513.93008133902 1599.59732989982 1685.26457900425 1770.93182810868 1856.59907721312 1942.26632631755 2027.93357542198 2113.60082452642 2199.26807363084 2284.93532273527 2370.60257183971 2456.26982094413 2541.93707004856 2627.60431915301 2713.27156825745 2798.93881736189 2884.60606646631 2970.27331557072 3055.94056467516 3141.60781377959 3227.27506288402 3312.94231198846 3398.6095610929 3484.27681019732 3569.94405930175 3655.61130840617 3741.2785575106 3826.94580661505 3912.61305517584 3998.28230975804
     131 0.0058094445   -2970723.9            0   -2970723.4    11.430989 
0.081 1428.29616054487 1513.93008135499 1599.59732989982 1685.26457900425 1770.93182810869 1856.59907721312 1942.26632631755 2027.93357542198 2113.60082452642 2199.26807363084 2284.93532273528 2370.60257183971 2456.26982094413 2541.93707004856 2627.60431915301 2713.27156825745 2798.93881736189 2884.60606646631 2970.27331557071 3055.94056467516 3141.6078137796 3227.27506288402 3312.94231198846 3398.6095610929 3484.27681019732 3569.94405930175 3655.61130840617 3741.27855751059 3826.94580661504 3912.61305515987 3998.28230975294
     132 0.0059146679   -2970723.9            0   -2970723.4    11.571238 
0.082 1428.29658946781 1513.93008137128 1599.59732989982 1685.26457900425 1770.93182810868 1856.59907721312 1942.26632631755 2027.93357542198 2113.60082452642 2199.26807363084 2284.93532273528 2370.60257183972 2456.26982094413 2541.93707004857 2627.60431915301 2713.27156825745 2798.93881736189 2884.60606646631 2970.27331557071 3055.94056467516 3141.6078137796 3227.27506288401 3312.94231198845 3398.60956109291 3484.27681019732 3569.94405930175 3655.61130840617 3741.27855751058 3826.94580661504 3912.61305514359 3998.28230974809
     133 0.0060189173   -2970723.9            0   -2970723.3    11.711381 
0.083 1428.29701812304 1513.93008138789 1599.59732989982 1685.26457900425 1770.93182810868 1856.59907721311 1942.26632631755 2027.93357542198 2113.60082452642 2199.26807363084 2284.93532273527 2370.60257183972 2456.26982094413 2541.93707004857 2627.60431915301 2713.27156825745 2798.93881736189 2884.60606646631 2970.27331557072 3055.94056467516 3141.6078137796 3227.275062884 3312.94231198846 3398.60956109291 3484.27681019732 3569.94405930175 3655.61130840617 3741.27855751059 3826.94580661504 3912.61305512698 3998.2823097435
     134  0.006122171   -2970723.9            0   -2970723.3    11.851419 
0.084 1428.2974465074 1513.93008140481 1599.59732989982 1685.26457900425 1770.93182810868 1856.59907721312 1942.26632631755 2027.93357542198 2113.60082452642 2199.26807363084 2284.93532273527 2370.60257183971 2456.26982094413 2541.93707004856 2627.60431915301 2713.27156825745 2798.93881736189 2884.60606646631 2970.27331557072 3055.94056467516 3141.6078137796 3227.27506288401 3312.94231198846 3398.60956109291 3484.27681019732 3569.94405930175 3655.61130840617 3741.2785575106 3826.94580661505 3912.61305511007 3998.28230973918
     135 0.0062244132   -2970723.9            0   -2970723.3     11.99135 
0.085 1428.29787461767 1513.93008142206 1599.59732989982 1685.26457900425 1770.93182810868 1856.59907721312 1942.26632631755 2027.93357542198 2113.60082452642 2199.26807363084 2284.93532273527 2370.60257183971 2456.26982094413 2541.93707004857 2627.60431915301 2713.27156825745 2798.93881736189 2884.60606646631 2970.27331557072 3055.94056467516 3141.60781377959 3227.27506288402 3312.94231198845 3398.6095610929 3484.27681019732 3569.94405930175 3655.61130840617 3741.2785575106 3826.94580661505 3912.61305509281 3998.28230973512
     136 0.0063256337   -2970723.9            0   -2970723.3    12.131176 
0.086 1428.29830245068 1513.93008143964 1599.59732989982 1685.26457900425 1770.93182810868 1856.59907721312 1942.26632631755 2027.93357542198 2113.60082452642 2199.26807363084 2284.93532273528 2370.60257183971 2456.26982094413 2541.93707004856 2627.604319153 2713.27156825745 2798.93881736189 2884.6060664663 2970.27331557073 3055.94056467516 3141.60781377959 3227.27506288402 3312.94231198846 3398.6095610929 3484.27681019732 3569.94405930175 3655.61130840617 3741.2785575106 3826.94580661505 3912.61305507523 3998.28230973133
     137 0.0064258282   -2970723.9            0   -2970723.3    12.270896 
0.087 1428.29873000323 1513.93008145755 1599.59732989982 1685.26457900425 1770.93182810868 1856.59907721312 1942.26632631755 2027.93357542198 2113.60082452641 2199.26807363084 2284.93532273528 2370.60257183971 2456.26982094414 2541.93707004857 2627.604319153 2713.27156825745 2798.93881736189 2884.6060664663 2970.27331557073 3055.94056467516 3141.60781377959 3227.27506288402 3312.94231198846 3398.6095610929 3484.27681019732 3569.94405930175 3655.61130840618 3741.2785575106 3826.94580661504 3912.61305505732 3998.28230972784
     138 0.0065249971   -2970723.9            0   -2970723.3     12.41051 
0.088 1428.29915727215 1513.93008147579 1599.59732989982 1685.26457900425 1770.93182810868 1856.59907721312 1942.26632631755 2027.93357542198 2113.60082452641 2199.26807363084 2284.93532273527 2370.60257183971 2456.26982094414 2541.93707004857 2627.604319153 2713.27156825745 2798.93881736189 2884.6060664663 2970.27331557073 3055.94056467515 3141.60781377959 3227.27506288403 3312.94231198845 3398.6095610929 3484.27681019732 3569.94405930175 3655.61130840618 3741.27855751061 3826.94580661504 3912.61305503907 3998.28230972462
     139 0.0066231458   -2970723.9            0   -2970723.2    12.550018 
0.089 1428.29958425424 1513.93008149437 1599.59732989982 1685.26457900425 1770.93182810869 1856.59907721311 1942.26632631755 2027.93357542198 2113.60082452641 2199.26807363084 2284.93532273527 2370.60257183971 2456.26982094414 2541.93707004857 2627.604319153 2713.27156825745 2798.93881736189 2884.60606646629 2970.27331557073 3055.94056467516 3141.60781377959 3227.27506288402 3312.94231198845 3398.60956109289 3484.27681019732 3569.94405930175 3655.61130840618 3741.27855751061 3826.94580661504 3912.6130550205 3998.2823097217
     140 0.0067202841   -2970723.8            0   -2970723.2    12.689421 
0.09 1428.30001094634 1513.93008151328 1599.59732989982 1685.26457900425 1770.93182810869 1856.59907721312 1942.26632631755 2027.93357542198 2113.60082452641 2199.26807363084 2284.93532273527 2370.6025718397 2456.26982094414 2541.93707004857 2627.604319153 2713.27156825745 2798.93881736189 2884.6060664663 2970.27331557073 3055.94056467516 3141.60781377959 3227.27506288403 3312.94231198845 3398.6095610929 3484.27681019732 3569.94405930175 3655.61130840618 3741.27855751061 3826.94580661504 3912.61305500158 3998.28230971909
     141  0.006816426   -2970723.8            0   -2970723.2    12.828718 
0.091 1428.30043734526 1513.93008153254 1599.59732989982 1685.26457900425 1770.93182810868 1856.59907721312 1942.26632631755 2027.93357542198 2113.60082452641 2199.26807363084 2284.93532273527 2370.6025718397 2456.26982094414 2541.93707004857 2627.604319153 2713.27156825745 2798.93881736189 2884.60606646629 2970.27331557073 3055.94056467516 3141.60781377959 3227.27506288402 3312.94231198846 3398.6095610929 3484.27681019732 3569.94405930175 3655.61130840618 3741.27855751061 3826.94580661504 3912.61305498232 3998.28230971679
     142 0.0069115888   -2970723.8            0   -2970723.2     12.96791 
0.092 1428.30086344784 1513.93008155214 1599.59732989982 1685.26457900425 1770.93182810868 1856.59907721312 1942.26632631755 2027.93357542198 2113.60082452641 2199.26807363084 2284.93532273527 2370.6025718397 2456.26982094414 2541.93707004857 2627.604319153 2713.27156825745 2798.93881736189 2884.6060664663 2970.27331557073 3055.94056467516 3141.60781377959 3227.27506288403 3312.94231198845 3398.60956109289 3484.27681019732 3569.94405930175 3655.61130840618 3741.27855751061 3826.94580661504 3912.61305496272 3998.28230971481
     143 0.0070057935   -2970723.8            0   -2970723.2    13.106997 
0.093 1428.30128925089 1513.93008157208 1599.59732989982 1685.26457900425 1770.93182810868 1856.59907721311 1942.26632631755 2027.93357542198 2113.60082452641 2199.26807363084 2284.93532273527 2370.6025718397 2456.26982094414 2541.93707004857 2627.604319153 2713.27156825745 2798.93881736189 2884.6060664663 2970.27331557073 3055.94056467516 3141.60781377959 3227.27506288402 3312.94231198845 3398.60956109289 3484.27681019732 3569.94405930175 3655.61130840618 3741.27855751061 3826.94580661504 3912.61305494278 3998.28230971315
     144 0.0070990636   -2970723.8            0   -2970723.2    13.245979 
0.094 1428.30171475126 1513.93008159238 1599.59732989982 1685.26457900425 1770.93182810868 1856.59907721312 1942.26632631755 2027.93357542198 2113.60082452641 2199.26807363085 2284.93532273527 2370.6025718397 2456.26982094414 2541.93707004857 2627.604319153 2713.27156825745 2798.93881736189 2884.60606646629 2970.27331557073 3055.94056467516 3141.6078137796 3227.27506288402 3312.94231198846 3398.60956109289 3484.27681019732 3569.94405930175 3655.61130840618 3741.27855751062 3826.94580661504 3912.61305492249 3998.28230971182
     145 0.0071914253   -2970723.8            0   -2970723.1    13.384857 
0.095 1428.30213994578 1513.93008161302 1599.59732989982 1685.26457900425 1770.93182810868 1856.59907721312 1942.26632631755 2027.93357542198 2113.60082452641 2199.26807363084 2284.93532273527 2370.60257183971 2456.26982094414 2541.93707004857 2627.604319153 2713.27156825745 2798.93881736189 2884.6060664663 2970.27331557073 3055.94056467516 3141.60781377959 3227.27506288402 3312.94231198845 3398.60956109289 3484.27681019732 3569.94405930175 3655.61130840618 3741.27855751061 3826.94580661504 3912.61305490184 3998.28230971084
     146 0.0072829068   -2970723.8            0   -2970723.1     13.52363 
0.096 1428.30256483129 1513.93008163401 1599.59732989982 1685.26457900425 1770.93182810868 1856.59907721311 1942.26632631755 2027.93357542198 2113.60082452641 2199.26807363084 2284.93532273527 2370.60257183971 2456.26982094414 2541.93707004857 2627.604319153 2713.27156825745 2798.93881736189 2884.6060664663 2970.27331557073 3055.94056467516 3141.60781377959 3227.27506288403 3312.94231198845 3398.60956109289 3484.27681019732 3569.94405930175 3655.61130840618 3741.27855751062 3826.94580661504 3912.61305488085 3998.2823097102
     147 0.0073735381   -2970723.8            0   -2970723.1    13.662298 
0.097 1428.30298940462 1513.93008165537 1599.59732989982 1685.26457900425 1770.93182810868 1856.59907721312 1942.26632631755 2027.93357542198 2113.60082452641 2199.26807363084 2284.93532273527 2370.60257183971 2456.26982094414 2541.93707004857 2627.604319153 2713.27156825745 2798.93881736189 2884.6060664663 2970.27331557073 3055.94056467516 3141.60781377959 3227.27506288402 3312.94231198846 3398.60956109289 3484.27681019732 3569.94405930175 3655.61130840618 3741.27855751062 3826.94580661504 3912.6130548595 3998.28230970993
     148 0.0074633504   -2970723.8            0   -2970723.1    13.800862 
0.098 1428.30341366263 1513.93008167708 1599.59732989982 1685.26457900425 1770.93182810868 1856.59907721311 1942.26632631755 2027.93357542198 2113.60082452641 2199.26807363084 2284.93532273527 2370.60257183971 2456.26982094414 2541.93707004857 2627.604319153 2713.27156825745 2798.93881736189 2884.6060664663 2970.27331557073 3055.94056467516 3141.60781377959 3227.27506288403 3312.94231198845 3398.60956109289 3484.27681019732 3569.94405930175 3655.61130840618 3741.27855751062 3826.94580661504 3912.61305483779 3998.28230971002
     149 0.0075523758   -2970723.8            0   -2970723.1    13.939321 
0.099 1428.30383760215 1513.93008169914 1599.59732989982 1685.26457900425 1770.93182810868 1856.59907721312 1942.26632631755 2027.93357542198 2113.60082452641 2199.26807363084 2284.93532273527 2370.6025718397 2456.26982094414 2541.93707004857 2627.604319153 2713.27156825745 2798.93881736189 2884.6060664663 2970.27331557073 3055.94056467516 3141.6078137796 3227.27506288403 3312.94231198846 3398.60956109288 3484.27681019732 3569.94405930175 3655.61130840618 3741.27855751062 3826.94580661504 3912.61305481573 3998.28230971048
     150 0.0076406473   -2970723.8            0   -2970723.1    14.077677 
0.1 1428.30426122004 1513.93008172157 1599.59732989982 1685.26457900425 1770.93182810868 1856.59907721312 1942.26632631755 2027.93357542198 2113.60082452641 2199.26807363084 2284.93532273527 2370.60257183971 2456.26982094414 2541.93707004857 2627.604319153 2713.27156825745 2798.93881736189 2884.6060664663 2970.27331557073 3055.94056467516 3141.60781377959 3227.27506288403 3312.94231198846 3398.60956109288 3484.27681019732 3569.94405930175 3655.61130840618 3741.27855751062 3826.94580661504 3912.61305479329 3998.28230971134
     151 0.0077281978   -2970723.8            0     -2970723    14.215929 
Loop time of 7.3954 on 64 procs for 100 steps with 720800 atoms

Performance: 1.168 ns/day, 20.543 hours/ns, 13.522 timesteps/s
99.9% CPU use with 64 MPI tasks x no OpenMP threads

MPI task timing breakdown:
Section |  min time  |  avg time  |  max time  |%varavg| %total
---------------------------------------------------------------
Pair    | 5.6514e-05 | 3.2491     | 6.8389     | 183.5 | 43.93
Neigh   | 0          | 0          | 0          |   0.0 |  0.00
Comm    | 3.9674e-05 | 0.16824    | 3.7056     | 153.9 |  2.27
Output  | 0.013939   | 0.078259   | 0.07944    |   2.9 |  1.06
Modify  | 0.38954    | 3.8655     | 7.3385     | 173.4 | 52.27
Other   |            | 0.03431    |            |       |  0.46

Nlocal:        11262.5 ave       24000 max           0 min
Histogram: 32 2 0 0 0 0 0 0 0 30
Nghost:          10417 ave       22560 max           0 min
Histogram: 32 0 2 0 0 0 0 0 0 30
Neighs:         944988 ave 2.01746e+06 max           0 min
Histogram: 32 2 0 0 0 0 0 0 0 30

Total # of neighbors = 60479200
Ave neighs/atom = 83.90566
Neighbor list builds = 0
Dangerous builds = 0
WARNING: One or more atoms are time integrated more than once (../modify.cpp:281)
Setting up Verlet run ...
  Unit style    : metal
  Current step  : 151
  Time step     : 0.001
0.1 1428.30426122004 1513.93008172157 1599.59732989982 1685.26457900425 1770.93182810868 1856.59907721312 1942.26632631755 2027.93357542198 2113.60082452641 2199.26807363084 2284.93532273527 2370.60257183971 2456.26982094414 2541.93707004857 2627.604319153 2713.27156825745 2798.93881736189 2884.6060664663 2970.27331557073 3055.94056467516 3141.60781377959 3227.27506288403 3312.94231198845 3398.60956109288 3484.27681019732 3569.94405930175 3655.61130840618 3741.27855751062 3826.94580661504 3912.61305479329 3998.28230971134
Per MPI rank memory allocation (min/avg/max) = 3.605 | 10.66 | 18.57 Mbytes
Step Temp E_pair E_mol TotEng Press 
     151 0.0077281978   -2970723.8            0     -2970723    14.215929 
0.101 1428.30468451315 1513.93008174436 1599.59732989982 1685.26457900425 1770.93182810868 1856.59907721311 1942.26632631755 2027.93357542198 2113.60082452641 2199.26807363084 2284.93532273527 2370.60257183971 2456.26982094414 2541.93707004857 2627.604319153 2713.27156825745 2798.93881736189 2884.6060664663 2970.27331557073 3055.94056467516 3141.60781377959 3227.27506288403 3312.94231198845 3398.60956109288 3484.27681019732 3569.94405930175 3655.61130840618 3741.27855751062 3826.94580661504 3912.6130547705 3998.28230971258
     152 0.0078150604   -2970723.7            0     -2970723    14.354077 
0.102 1428.30510747834 1513.93008176752 1599.59732989982 1685.26457900425 1770.93182810869 1856.59907721312 1942.26632631755 2027.93357542198 2113.60082452641 2199.26807363084 2284.93532273527 2370.60257183971 2456.26982094414 2541.93707004857 2627.604319153 2713.27156825745 2798.93881736189 2884.6060664663 2970.27331557073 3055.94056467516 3141.60781377959 3227.27506288402 3312.94231198846 3398.60956109288 3484.27681019732 3569.94405930175 3655.61130840618 3741.27855751062 3826.94580661504 3912.61305474734 3998.28230971424
     153 0.0079012679   -2970723.7            0     -2970723     14.49212 
0.103 1428.30553011247 1513.93008179104 1599.59732989982 1685.26457900425 1770.93182810868 1856.59907721312 1942.26632631755 2027.93357542198 2113.60082452641 2199.26807363084 2284.93532273527 2370.60257183971 2456.26982094414 2541.93707004857 2627.604319153 2713.27156825745 2798.93881736189 2884.6060664663 2970.27331557073 3055.94056467516 3141.60781377959 3227.27506288402 3312.94231198846 3398.60956109288 3484.27681019732 3569.94405930175 3655.61130840618 3741.27855751062 3826.94580661505 3912.61305472382 3998.2823097163
     154 0.0079868525   -2970723.7            0     -2970723     14.63006 
0.104 1428.30595241239 1513.93008181494 1599.59732989982 1685.26457900425 1770.93182810868 1856.59907721312 1942.26632631755 2027.93357542198 2113.60082452641 2199.26807363084 2284.93532273527 2370.6025718397 2456.26982094414 2541.93707004857 2627.604319153 2713.27156825745 2798.93881736189 2884.6060664663 2970.27331557073 3055.94056467516 3141.60781377959 3227.27506288403 3312.94231198845 3398.60956109288 3484.27681019732 3569.94405930175 3655.61130840618 3741.27855751062 3826.94580661505 3912.61305469993 3998.2823097188
     155 0.0080718455   -2970723.7            0     -2970723    14.767895 
0.105 1428.30637437498 1513.9300818392 1599.59732989982 1685.26457900425 1770.93182810868 1856.59907721312 1942.26632631755 2027.93357542198 2113.60082452641 2199.26807363084 2284.93532273527 2370.60257183971 2456.26982094414 2541.93707004857 2627.604319153 2713.27156825745 2798.93881736189 2884.6060664663 2970.27331557073 3055.94056467516 3141.60781377959 3227.27506288402 3312.94231198845 3398.60956109288 3484.27681019732 3569.94405930175 3655.61130840618 3741.27855751062 3826.94580661505 3912.61305467567 3998.28230972173
     156 0.0081562772   -2970723.7            0     -2970723    14.905626 
0.106 1428.30679599709 1513.93008186383 1599.59732989982 1685.26457900425 1770.93182810868 1856.59907721312 1942.26632631755 2027.93357542198 2113.60082452641 2199.26807363084 2284.93532273527 2370.60257183971 2456.26982094414 2541.93707004857 2627.604319153 2713.27156825745 2798.93881736189 2884.6060664663 2970.27331557073 3055.94056467516 3141.60781377959 3227.27506288403 3312.94231198845 3398.60956109288 3484.27681019732 3569.94405930175 3655.61130840618 3741.27855751062 3826.94580661505 3912.61305465103 3998.2823097251
     157 0.0082401766   -2970723.7            0   -2970722.9    15.043252 
0.107 1428.30721727561 1513.93008188884 1599.59732989982 1685.26457900425 1770.93182810868 1856.59907721312 1942.26632631755 2027.93357542198 2113.60082452641 2199.26807363084 2284.93532273527 2370.60257183971 2456.26982094414 2541.93707004857 2627.604319153 2713.27156825745 2798.93881736189 2884.6060664663 2970.27331557073 3055.94056467516 3141.60781377959 3227.27506288403 3312.94231198846 3398.60956109288 3484.27681019732 3569.94405930175 3655.61130840618 3741.27855751062 3826.94580661504 3912.61305462602 3998.28230972894
     158 0.0083235716   -2970723.7            0   -2970722.9    15.180773 
0.108 1428.3076382074 1513.93008191422 1599.59732989982 1685.26457900425 1770.93182810868 1856.59907721312 1942.26632631755 2027.93357542198 2113.60082452641 2199.26807363084 2284.93532273527 2370.60257183971 2456.26982094414 2541.93707004857 2627.604319153 2713.27156825745 2798.93881736189 2884.60606646629 2970.27331557073 3055.94056467516 3141.60781377959 3227.27506288402 3312.94231198846 3398.60956109288 3484.27681019732 3569.94405930175 3655.61130840618 3741.27855751062 3826.94580661504 3912.61305460064 3998.28230973324
     159 0.0084064884   -2970723.7            0   -2970722.9    15.318188 
0.109 1428.30805878935 1513.93008193998 1599.59732989982 1685.26457900425 1770.93182810868 1856.59907721312 1942.26632631754 2027.93357542198 2113.60082452641 2199.26807363084 2284.93532273527 2370.60257183971 2456.26982094414 2541.93707004857 2627.604319153 2713.27156825745 2798.93881736189 2884.60606646629 2970.27331557073 3055.94056467516 3141.60781377959 3227.27506288403 3312.94231198846 3398.60956109288 3484.27681019732 3569.94405930175 3655.61130840618 3741.27855751062 3826.94580661504 3912.61305457488 3998.28230973803
     160 0.0084889515   -2970723.7            0   -2970722.9    15.455498 
[...]
     804   0.02643033     -2970722            0   -2970719.6    49.400678 
0.754 1428.4118388684 1513.93013302645 1599.59732989982 1685.26457900425 1770.93182810868 1856.59907721312 1942.26632631755 2027.93357542198 2113.60082452641 2199.26807363084 2284.93532273527 2370.60257183971 2456.26982094414 2541.93707004857 2627.604319153 2713.27156825745 2798.93881736189 2884.60606646629 2970.27331557073 3055.94056467516 3141.60781377959 3227.27506288402 3312.94231198845 3398.60956109289 3484.27681019732 3569.94405930175 3655.61130840618 3741.27855751062 3826.94580661504 3912.61300348842 3998.28234987426
     805  0.026439608     -2970722            0   -2970719.6    49.351012 
0.755 1428.41168689335 1513.93013309534 1599.59732989982 1685.26457900425 1770.93182810869 1856.59907721312 1942.26632631755 2027.93357542198 2113.60082452641 2199.26807363084 2284.93532273527 2370.6025718397 2456.26982094413 2541.93707004857 2627.604319153 2713.27156825745 2798.93881736189 2884.6060664663 2970.27331557073 3055.94056467516 3141.60781377959 3227.27506288402 3312.94231198845 3398.60956109289 3484.27681019732 3569.94405930175 3655.61130840618 3741.27855751062 3826.94580661504 3912.61300341952 3998.28234998492
     806  0.026448968     -2970722            0   -2970719.6    49.301077 
0.756 1428.41153410313 1513.93013316413 1599.59732989982 1685.26457900425 1770.93182810869 1856.59907721312 1942.26632631755 2027.93357542198 2113.60082452641 2199.26807363084 2284.93532273527 2370.60257183971 2456.26982094414 2541.93707004857 2627.604319153 2713.27156825745 2798.93881736189 2884.6060664663 2970.27331557073 3055.94056467516 3141.60781377959 3227.27506288402 3312.94231198845 3398.60956109289 3484.27681019732 3569.94405930175 3655.61130840618 3741.27855751062 3826.94580661505 3912.61300335074 3998.28235009549
     807  0.026458412     -2970722            0   -2970719.6    49.250876 
0.757 1428.41138049985 1513.93013323281 1599.59732989982 1685.26457900425 1770.93182810868 1856.59907721312 1942.26632631755 2027.93357542198 2113.60082452641 2199.26807363084 2284.93532273528 2370.60257183971 2456.26982094414 2541.93707004857 2627.604319153 2713.27156825745 2798.93881736189 2884.6060664663 2970.27331557073 3055.94056467516 3141.60781377959 3227.27506288402 3312.94231198845 3398.60956109289 3484.27681019732 3569.94405930175 3655.61130840618 3741.27855751062 3826.94580661505 3912.61300328206 3998.28235020599
     808  0.026467941     -2970722            0   -2970719.6    49.200407 
0.758 1428.41122608563 1513.93013330139 1599.59732989982 1685.26457900425 1770.93182810868 1856.59907721312 1942.26632631755 2027.93357542198 2113.60082452641 2199.26807363084 2284.93532273528 2370.60257183971 2456.26982094413 2541.93707004857 2627.604319153 2713.27156825745 2798.93881736189 2884.6060664663 2970.27331557073 3055.94056467516 3141.60781377959 3227.27506288402 3312.94231198845 3398.60956109289 3484.27681019732 3569.94405930175 3655.61130840618 3741.27855751062 3826.94580661505 3912.61300321348 3998.28235031642
     809  0.026477558     -2970722            0   -2970719.6    49.149673 
0.759 1428.41107086261 1513.93013336987 1599.59732989982 1685.26457900425 1770.93182810868 1856.59907721312 1942.26632631755 2027.93357542198 2113.60082452641 2199.26807363084 2284.93532273528 2370.60257183971 2456.26982094413 2541.93707004857 2627.604319153 2713.27156825745 2798.93881736189 2884.6060664663 2970.27331557073 3055.94056467516 3141.60781377959 3227.27506288402 3312.94231198845 3398.60956109289 3484.27681019732 3569.94405930175 3655.61130840618 3741.27855751062 3826.94580661505 3912.613003145 3998.2823504268
     810  0.026487265     -2970722            0   -2970719.6    49.098673 
0.76 1428.41091483291 1513.93013343824 1599.59732989982 1685.26457900425 1770.93182810868 1856.59907721311 1942.26632631755 2027.93357542198 2113.60082452641 2199.26807363084 2284.93532273528 2370.60257183971 2456.26982094414 2541.93707004857 2627.604319153 2713.27156825745 2798.93881736189 2884.60606646629 2970.27331557073 3055.94056467516 3141.60781377959 3227.27506288402 3312.94231198845 3398.60956109289 3484.27681019732 3569.94405930175 3655.61130840618 3741.27855751061 3826.94580661505 3912.61300307662 3998.28235053717
     811  0.026497063     -2970722            0   -2970719.6    49.047408 
0.761 1428.41075799868 1513.93013350652 1599.59732989982 1685.26457900425 1770.93182810868 1856.59907721312 1942.26632631755 2027.93357542198 2113.60082452641 2199.26807363084 2284.93532273528 2370.60257183971 2456.26982094414 2541.93707004857 2627.604319153 2713.27156825745 2798.93881736189 2884.60606646629 2970.27331557072 3055.94056467516 3141.60781377959 3227.27506288402 3312.94231198845 3398.60956109289 3484.27681019732 3569.94405930176 3655.61130840618 3741.27855751061 3826.94580661505 3912.61300300835 3998.28235064752
     812  0.026506955     -2970722            0   -2970719.6     48.99588 
0.762 1428.41060036207 1513.93013357468 1599.59732989982 1685.26457900425 1770.93182810868 1856.59907721312 1942.26632631755 2027.93357542198 2113.60082452641 2199.26807363084 2284.93532273528 2370.60257183971 2456.26982094414 2541.93707004857 2627.604319153 2713.27156825745 2798.93881736189 2884.6060664663 2970.27331557073 3055.94056467516 3141.60781377959 3227.27506288402 3312.94231198845 3398.60956109289 3484.27681019732 3569.94405930175 3655.61130840618 3741.27855751061 3826.94580661505 3912.61300294018 3998.28235075788
     813  0.026516944     -2970722            0   -2970719.6    48.944088 
0.763 1428.41044192523 1513.93013364275 1599.59732989982 1685.26457900425 1770.93182810869 1856.59907721312 1942.26632631755 2027.93357542198 2113.60082452641 2199.26807363084 2284.93532273528 2370.60257183971 2456.26982094414 2541.93707004857 2627.604319153 2713.27156825745 2798.93881736189 2884.6060664663 2970.27331557073 3055.94056467516 3141.60781377959 3227.27506288403 3312.94231198845 3398.60956109289 3484.27681019732 3569.94405930175 3655.61130840618 3741.27855751061 3826.94580661505 3912.61300287211 3998.28235086828
     814  0.026527032     -2970722            0   -2970719.6    48.892034 
0.764 1428.41028269033 1513.93013371072 1599.59732989982 1685.26457900425 1770.93182810868 1856.59907721312 1942.26632631754 2027.93357542198 2113.60082452641 2199.26807363084 2284.93532273528 2370.6025718397 2456.26982094414 2541.93707004857 2627.604319153 2713.27156825745 2798.93881736189 2884.6060664663 2970.27331557073 3055.94056467516 3141.60781377959 3227.27506288403 3312.94231198845 3398.60956109288 3484.27681019732 3569.94405930175 3655.61130840618 3741.27855751061 3826.94580661505 3912.61300280415 3998.28235097872
     815  0.026537223     -2970722            0   -2970719.6    48.839719 
0.765 1428.41012265953 1513.93013377858 1599.59732989982 1685.26457900425 1770.93182810868 1856.59907721312 1942.26632631755 2027.93357542198 2113.60082452641 2199.26807363084 2284.93532273527 2370.6025718397 2456.26982094414 2541.93707004857 2627.604319153 2713.27156825745 2798.93881736189 2884.6060664663 2970.27331557073 3055.94056467516 3141.60781377959 3227.27506288403 3312.94231198845 3398.60956109288 3484.27681019732 3569.94405930175 3655.61130840618 3741.27855751061 3826.94580661505 3912.61300273628 3998.28235108924
     816  0.026547518     -2970722            0   -2970719.5    48.787143 
0.766 1428.40996183501 1513.93013384634 1599.59732989982 1685.26457900425 1770.93182810869 1856.59907721312 1942.26632631755 2027.93357542198 2113.60082452641 2199.26807363084 2284.93532273527 2370.6025718397 2456.26982094414 2541.93707004857 2627.604319153 2713.27156825745 2798.93881736189 2884.6060664663 2970.27331557073 3055.94056467516 3141.60781377959 3227.27506288403 3312.94231198845 3398.60956109288 3484.27681019731 3569.94405930175 3655.61130840618 3741.27855751061 3826.94580661505 3912.61300266853 3998.28235119985
     817  0.026557921     -2970722            0   -2970719.5    48.734307 
0.767 1428.40980021897 1513.930133914 1599.59732989982 1685.26457900425 1770.93182810868 1856.59907721312 1942.26632631755 2027.93357542198 2113.60082452641 2199.26807363084 2284.93532273527 2370.6025718397 2456.26982094414 2541.93707004857 2627.604319153 2713.27156825745 2798.93881736189 2884.6060664663 2970.27331557073 3055.94056467516 3141.60781377959 3227.27506288403 3312.94231198846 3398.60956109288 3484.27681019731 3569.94405930175 3655.61130840618 3741.27855751061 3826.94580661505 3912.61300260086 3998.28235131057
     818  0.026568434     -2970722            0   -2970719.5    48.681212 
0.768 1428.40963781357 1513.93013398156 1599.59732989982 1685.26457900425 1770.93182810869 1856.59907721312 1942.26632631755 2027.93357542198 2113.60082452641 2199.26807363084 2284.93532273527 2370.6025718397 2456.26982094414 2541.93707004857 2627.604319153 2713.27156825745 2798.93881736189 2884.6060664663 2970.27331557073 3055.94056467516 3141.6078137796 3227.27506288403 3312.94231198846 3398.60956109288 3484.27681019731 3569.94405930175 3655.61130840618 3741.27855751061 3826.94580661505 3912.6130025333 3998.28235142142
     819  0.026579059     -2970722            0   -2970719.5    48.627859 
0.769 1428.40947462103 1513.93013404902 1599.59732989982 1685.26457900425 1770.93182810869 1856.59907721312 1942.26632631755 2027.93357542198 2113.60082452641 2199.26807363085 2284.93532273527 2370.6025718397 2456.26982094414 2541.93707004857 2627.604319153 2713.27156825745 2798.93881736189 2884.6060664663 2970.27331557073 3055.94056467516 3141.60781377959 3227.27506288403 3312.94231198846 3398.60956109288 3484.27681019731 3569.94405930175 3655.61130840618 3741.27855751061 3826.94580661505 3912.61300246584 3998.28235153243
     820    0.0265898     -2970722            0   -2970719.5    48.574248 
0.77 1428.40931064354 1513.93013411638 1599.59732989982 1685.26457900425 1770.93182810868 1856.59907721312 1942.26632631755 2027.93357542198 2113.60082452641 2199.26807363084 2284.93532273527 2370.60257183971 2456.26982094414 2541.93707004857 2627.604319153 2713.27156825745 2798.93881736189 2884.6060664663 2970.27331557073 3055.94056467516 3141.60781377959 3227.27506288403 3312.94231198846 3398.60956109289 3484.27681019731 3569.94405930175 3655.61130840618 3741.27855751061 3826.94580661504 3912.61300239849 3998.28235164361
     821  0.026600659     -2970722            0   -2970719.5     48.52038 
0.771 1428.40914588332 1513.93013418364 1599.59732989982 1685.26457900425 1770.93182810868 1856.59907721312 1942.26632631755 2027.93357542198 2113.60082452641 2199.26807363084 2284.93532273527 2370.60257183971 2456.26982094414 2541.93707004857 2627.604319153 2713.27156825745 2798.93881736189 2884.6060664663 2970.27331557073 3055.94056467516 3141.60781377959 3227.27506288402 3312.94231198846 3398.60956109289 3484.27681019731 3569.94405930175 3655.61130840618 3741.27855751061 3826.94580661504 3912.61300233124 3998.28235175497
     822  0.026611638     -2970722            0   -2970719.5    48.466256 
0.772 1428.40898034258 1513.93013425079 1599.59732989982 1685.26457900425 1770.93182810868 1856.59907721312 1942.26632631755 2027.93357542198 2113.60082452641 2199.26807363084 2284.93532273527 2370.6025718397 2456.26982094414 2541.93707004857 2627.604319153 2713.27156825745 2798.93881736189 2884.6060664663 2970.27331557073 3055.94056467516 3141.60781377959 3227.27506288402 3312.94231198845 3398.60956109289 3484.27681019732 3569.94405930175 3655.61130840618 3741.27855751061 3826.94580661504 3912.61300226408 3998.28235186657
     823  0.026622739     -2970722            0   -2970719.5    48.411876 
0.773 1428.40881402354 1513.93013431785 1599.59732989982 1685.26457900425 1770.93182810868 1856.59907721312 1942.26632631754 2027.93357542198 2113.60082452641 2199.26807363084 2284.93532273528 2370.6025718397 2456.26982094414 2541.93707004857 2627.604319153 2713.27156825744 2798.93881736189 2884.6060664663 2970.27331557073 3055.94056467516 3141.60781377959 3227.27506288402 3312.94231198846 3398.60956109289 3484.27681019731 3569.94405930175 3655.61130840618 3741.27855751061 3826.94580661504 3912.61300219702 3998.2823519784
     824  0.026633964     -2970722            0   -2970719.5    48.357242 
0.774 1428.40864692844 1513.9301343848 1599.59732989982 1685.26457900426 1770.93182810868 1856.59907721312 1942.26632631755 2027.93357542198 2113.60082452641 2199.26807363084 2284.93532273528 2370.60257183971 2456.26982094414 2541.93707004857 2627.604319153 2713.27156825745 2798.93881736189 2884.6060664663 2970.27331557073 3055.94056467516 3141.60781377959 3227.27506288402 3312.94231198845 3398.60956109289 3484.27681019732 3569.94405930175 3655.61130840618 3741.27855751061 3826.94580661504 3912.61300213006 3998.28235209048
     825  0.026645315     -2970722            0   -2970719.5    48.302354 
0.775 1428.40847905951 1513.93013445166 1599.59732989982 1685.26457900425 1770.93182810869 1856.59907721312 1942.26632631755 2027.93357542198 2113.60082452641 2199.26807363084 2284.93532273527 2370.60257183971 2456.26982094414 2541.93707004857 2627.604319153 2713.27156825745 2798.93881736189 2884.6060664663 2970.27331557073 3055.94056467516 3141.60781377959 3227.27506288402 3312.94231198846 3398.60956109289 3484.27681019732 3569.94405930175 3655.61130840618 3741.27855751061 3826.94580661504 3912.61300206321 3998.28235220284
     826  0.026656794     -2970722            0   -2970719.5    48.247212 
0.776 1428.40831041899 1513.93013451842 1599.59732989982 1685.26457900425 1770.93182810869 1856.59907721312 1942.26632631755 2027.93357542198 2113.60082452641 2199.26807363084 2284.93532273527 2370.60257183971 2456.26982094414 2541.93707004857 2627.604319153 2713.27156825745 2798.93881736189 2884.6060664663 2970.27331557073 3055.94056467516 3141.60781377959 3227.27506288402 3312.94231198846 3398.60956109289 3484.27681019732 3569.94405930176 3655.61130840618 3741.27855751061 3826.94580661504 3912.61300199645 3998.2823523155
     827  0.026668403     -2970722            0   -2970719.5    48.191817 
0.777 1428.40814100914 1513.93013458507 1599.59732989982 1685.26457900425 1770.93182810868 1856.59907721312 1942.26632631755 2027.93357542198 2113.60082452641 2199.26807363084 2284.93532273527 2370.60257183971 2456.26982094414 2541.93707004857 2627.604319153 2713.27156825745 2798.93881736189 2884.6060664663 2970.27331557073 3055.94056467516 3141.60781377959 3227.27506288402 3312.94231198846 3398.60956109289 3484.27681019731 3569.94405930176 3655.61130840618 3741.27855751061 3826.94580661504 3912.61300192979 3998.28235242848
     828  0.026680141     -2970722            0   -2970719.5     48.13617 
0.778 1428.4079708322 1513.93013465163 1599.59732989982 1685.26457900425 1770.93182810868 1856.59907721312 1942.26632631755 2027.93357542198 2113.60082452641 2199.26807363084 2284.93532273527 2370.60257183971 2456.26982094414 2541.93707004857 2627.604319153 2713.27156825745 2798.93881736189 2884.6060664663 2970.27331557073 3055.94056467516 3141.60781377959 3227.27506288402 3312.94231198846 3398.60956109289 3484.27681019732 3569.94405930175 3655.61130840618 3741.27855751061 3826.94580661504 3912.61300186324 3998.28235254181
     829   0.02669201     -2970722            0   -2970719.5    48.080271 
0.779 1428.40779989045 1513.93013471808 1599.59732989982 1685.26457900426 1770.93182810868 1856.59907721312 1942.26632631755 2027.93357542198 2113.60082452641 2199.26807363084 2284.93532273527 2370.60257183971 2456.26982094414 2541.93707004857 2627.604319153 2713.27156825745 2798.93881736189 2884.6060664663 2970.27331557073 3055.94056467516 3141.60781377959 3227.27506288402 3312.94231198846 3398.60956109289 3484.27681019732 3569.94405930175 3655.61130840618 3741.27855751061 3826.94580661504 3912.61300179678 3998.28235265548
     830  0.026704012     -2970722            0   -2970719.5    48.024121 
0.78 1428.40762818614 1513.93013478444 1599.59732989982 1685.26457900425 1770.93182810868 1856.59907721311 1942.26632631755 2027.93357542198 2113.60082452641 2199.26807363084 2284.93532273527 2370.60257183971 2456.26982094414 2541.93707004857 2627.60431915301 2713.27156825745 2798.93881736189 2884.6060664663 2970.27331557073 3055.94056467516 3141.60781377959 3227.27506288403 3312.94231198846 3398.60956109289 3484.27681019731 3569.94405930175 3655.61130840618 3741.27855751061 3826.94580661504 3912.61300173043 3998.28235276954
     831  0.026716146     -2970722            0   -2970719.5    47.967721 
0.781 1428.40745572156 1513.93013485069 1599.59732989982 1685.26457900425 1770.93182810868 1856.59907721312 1942.26632631755 2027.93357542198 2113.60082452641 2199.26807363084 2284.93532273527 2370.60257183971 2456.26982094414 2541.93707004857 2627.604319153 2713.27156825745 2798.93881736189 2884.6060664663 2970.27331557073 3055.94056467516 3141.60781377959 3227.27506288402 3312.94231198846 3398.60956109289 3484.27681019732 3569.94405930175 3655.61130840618 3741.27855751061 3826.94580661503 3912.61300166417 3998.28235288399
     832  0.026728413     -2970722            0   -2970719.5    47.911071 
0.782 1428.40728249899 1513.93013491685 1599.59732989982 1685.26457900425 1770.93182810868 1856.59907721312 1942.26632631755 2027.93357542198 2113.60082452641 2199.26807363085 2284.93532273527 2370.60257183971 2456.26982094414 2541.93707004857 2627.604319153 2713.27156825745 2798.93881736189 2884.6060664663 2970.27331557073 3055.94056467516 3141.60781377959 3227.27506288402 3312.94231198846 3398.60956109289 3484.27681019732 3569.94405930175 3655.61130840618 3741.27855751061 3826.94580661504 3912.61300159801 3998.28235299885
     833  0.026740812     -2970722            0   -2970719.5    47.854173 
0.783 1428.40710852072 1513.93013498291 1599.59732989982 1685.26457900425 1770.93182810869 1856.59907721312 1942.26632631755 2027.93357542198 2113.60082452641 2199.26807363084 2284.93532273527 2370.60257183971 2456.26982094414 2541.93707004857 2627.60431915301 2713.27156825745 2798.93881736189 2884.6060664663 2970.27331557073 3055.94056467516 3141.60781377959 3227.27506288402 3312.94231198846 3398.60956109288 3484.27681019732 3569.94405930175 3655.61130840618 3741.27855751061 3826.94580661504 3912.61300153196 3998.28235311416
     834  0.026753344     -2970722            0   -2970719.5    47.797027 
0.784 1428.40693378903 1513.93013504886 1599.59732989982 1685.26457900425 1770.93182810869 1856.59907721312 1942.26632631754 2027.93357542198 2113.60082452641 2199.26807363084 2284.93532273527 2370.60257183971 2456.26982094414 2541.93707004857 2627.604319153 2713.27156825745 2798.93881736189 2884.6060664663 2970.27331557073 3055.94056467516 3141.6078137796 3227.27506288402 3312.94231198846 3398.60956109288 3484.27681019732 3569.94405930175 3655.61130840618 3741.27855751061 3826.94580661504 3912.61300146601 3998.28235322991
     835  0.026766008     -2970722            0   -2970719.5    47.739633 
0.785 1428.40675830624 1513.93013511472 1599.59732989982 1685.26457900425 1770.93182810868 1856.59907721312 1942.26632631755 2027.93357542198 2113.60082452641 2199.26807363084 2284.93532273527 2370.60257183971 2456.26982094414 2541.93707004857 2627.604319153 2713.27156825745 2798.93881736189 2884.6060664663 2970.27331557073 3055.94056467516 3141.60781377959 3227.27506288402 3312.94231198845 3398.60956109289 3484.27681019732 3569.94405930175 3655.61130840618 3741.27855751061 3826.94580661504 3912.61300140015 3998.28235334612
     836  0.026778804     -2970722            0   -2970719.5    47.681992 
slurmstepd: error: *** JOB 6989914 ON r231n01 CANCELLED AT 2022-06-17T07:36:26 ***
