LAMMPS (29 Sep 2021 - Update 1)
KOKKOS mode is enabled (../kokkos.cpp:97)
  will use up to 2 GPU(s) per node
  using 1 OpenMP thread(s) per MPI task
Reading data file ...
  orthogonal box = (2.8553240 0.0000000 0.0000000) to (434.00925 57.106480 57.106480)
  16 by 2 by 2 MPI processor grid
  reading atoms ...
  120800 atoms
  read_data CPU = 0.260 seconds
WARNING: Using 'neigh_modify every 1 delay 0 check yes' setting during minimization (../min.cpp:188)
Neighbor list info ...
  update every 1 steps, delay 0 steps, check yes
  max neighbors/atom: 2000, page size: 100000
  master list distance cutoff = 7.6
  ghost atom cutoff = 7.6
  binsize = 7.6, bins = 57 8 8
  1 neighbor lists, perpetual/occasional/extra = 1 0 0
  (1) pair eam/alloy/kk, perpetual
      attributes: full, newton off, kokkos_device
      pair build: full/bin/kk/device
      stencil: full/bin/3d
      bin: kk/device
Setting up cg/kk style minimization ...
  Unit style    : metal
  Current step  : 0
WARNING: Energy due to 1 extra global DOFs will be included in minimizer energies
WARNING: Fixes cannot yet send exchange data in Kokkos communication, switching to classic exchange/border communication (../comm_kokkos.cpp:581)
Per MPI rank memory allocation (min/avg/max) = 2.461 | 2.484 | 2.508 Mbytes
Step Temp E_pair E_mol TotEng Press Volume 
       0            0   -497990.16            0   -497990.16    1.1565062    1406057.6 
       1            0   -494834.44            0   -494834.44   -2741.3872    1406057.6 
Loop time of 1.85891 on 64 procs for 1 steps with 120800 atoms

83.9% CPU use with 64 MPI tasks x 1 OpenMP threads

Minimization stats:
  Stopping criterion = linesearch alpha is zero
  Energy initial, next-to-last, final = 
     -497990.160168482  -497990.160168482  -494834.443107115
  Force two-norm initial, final = 3.0448225 7217.5974
  Force max component initial, final = 3.0448225 7217.4602
  Final line search alpha, max atom move = 7.8302948e-10 5.6514841e-06
  Iterations, force evaluations = 1 24

MPI task timing breakdown:
Section |  min time  |  avg time  |  max time  |%varavg| %total
---------------------------------------------------------------
Pair    | 0.77285    | 0.90321    | 1.0043     |   6.7 | 48.59
Neigh   | 0.045982   | 0.064202   | 0.091057   |   3.2 |  3.45
Comm    | 0.25841    | 0.33538    | 0.41538    |   9.9 | 18.04
Output  | 0          | 0          | 0          |   0.0 |  0.00
Modify  | 0          | 0          | 0          |   0.0 |  0.00
Other   |            | 0.5561     |            |       | 29.92

Nlocal:        1887.50 ave        2110 max        1629 min
Histogram: 2 7 7 4 0 28 0 2 0 14
Nghost:        5207.25 ave        5586 max        4870 min
Histogram: 8 0 8 14 2 8 12 4 6 2
Neighs:         0.00000 ave           0 max           0 min
Histogram: 64 0 0 0 0 0 0 0 0 0
FullNghs:      295147.0 ave      354480 max      235090 min
Histogram: 1 9 2 13 8 8 15 0 1 7

Total # of neighbors = 18889418
Ave neighs/atom = 156.36935
Neighbor list builds = 5
Dangerous builds = 4
System init for write_data ...
