LAMMPS (29 Sep 2021 - Update 1)
KOKKOS mode is enabled (../kokkos.cpp:97)
  will use up to 2 GPU(s) per node
  using 1 OpenMP thread(s) per MPI task
package kokkos
#################################
#two psrts have to be corrected
#Vacancy >> type : Fe Fe Fe Fe Fe Fe Fe Fe Fe
#Cu      >> type : Fe Fe Fe Fe Fe Fe Fe Fe Fe Cu
#################################
variable j uloop 5
variable npt_temp      equal 0.1
label initialSettings
variable atmos        equal 1.01325                    # Atomic Mass

units       metal
atom_style  atomic
boundary p p p
if "$j ==1" then "read_data ./Fe_tensile.lat" else "read_data ./aftermm.lat"
read_data ./Fe_tensile.lat
Reading data file ...
  orthogonal box = (0.0000000 0.0000000 0.0000000) to (436.86457 57.106480 57.106480)
  16 by 2 by 2 MPI processor grid
  reading atoms ...
  120800 atoms
  read_data CPU = 0.266 seconds

#timestep    0.01
#timestep 0.1

pair_style  eam/alloy
pair_coeff  * * ./FeCuNi.eam.alloy Fe Fe Fe Fe Fe Fe Fe Fe Fe
#pair_coeff  * * ./new_potential/FeCuNi.eam.alloy Fe Fe Fe Fe Cu
#mass        *4 ${mass}
#pair_style  aenet
#pair_coeff  * * v03 Fe 10sw-10sw.nn Fe Fe Fe Fe Fe
#pair_coeff  * * ./new_potential/FeCuNi.eam.alloy Fe Fe Fe Fe Cu
#mass        *4 ${mass}
mass        * 55.845
#mass        5 58.454 correct value!!!

#group naming
group source type 2
800 atoms in group source
group detector type 3
800 atoms in group detector
group edge type 5
0 atoms in group edge
group edge_buf type 7
0 atoms in group edge_buf
group buffer type 7 8 9
0 atoms in group buffer
#group longage type 9

variable s equal xcm(source,x)
variable d equal xcm(detector,x)
variable g equal xcm(edge,x)
variable t equal temp
variable p equal press
variable v equal vol
variable e equal etotal
variable i equal time
variable FIG string iranai
variable f equal fcm(detector,x)
variable l equal vcm(detector,x)

##############################################
variable rescaleSteps equal 0
variable relaxationSteps equal 0
variable initialSteps equal ${rescaleSteps}+${relaxationSteps}
variable initialSteps equal 0+${relaxationSteps}
variable initialSteps equal 0+0
##############################################

#dump fuck all atom 1 strain.dump
#dump_modify fuck scale no

thermo 1
thermo_style custom time step lx pxx pxy pxz ly lz pyy pzz pyz etotal temp vol

#fix extra all print 1 "$i $s $d $g $l $f $t $v $e $p" file outp.txt

fix nve1 all nve
minimize 1.0e-30 1.0e-30 100000 100000
WARNING: Using 'neigh_modify every 1 delay 0 check yes' setting during minimization (../min.cpp:188)
Neighbor list info ...
  update every 1 steps, delay 0 steps, check yes
  max neighbors/atom: 2000, page size: 100000
  master list distance cutoff = 7.6
  ghost atom cutoff = 7.6
  binsize = 7.6, bins = 58 8 8
  1 neighbor lists, perpetual/occasional/extra = 1 0 0
  (1) pair eam/alloy/kk, perpetual
      attributes: full, newton off, kokkos_device
      pair build: full/bin/kk/device
      stencil: full/bin/3d
      bin: kk/device
WARNING: Fixes cannot yet send exchange data in Kokkos communication, switching to classic exchange/border communication (../comm_kokkos.cpp:581)
Per MPI rank memory allocation (min/avg/max) = 2.301 | 2.470 | 2.508 Mbytes
Time Step Lx Pxx Pxy Pxz Ly Lz Pyy Pzz Pyz TotEng Temp Volume 
           0        0    436.86457    118.80219 -5.3327085e-13 -5.2112805e-13     57.10648     57.10648    -812.7081    -812.7081 2.9946609e-13   -497261.36            0    1424680.9 
       0.001        1    436.86457     44.79424 -4.978043e-13 -5.3350939e-13     57.10648     57.10648   -904.84846   -904.84846 -3.1981919e-13   -497263.27            0    1424680.9 
       0.002        2    436.86457     23.52156 -3.6387735e-13 -7.15308e-13     57.10648     57.10648   -922.24294   -922.24294 7.469229e-15   -497263.32            0    1424680.9 
       0.003        3    436.86457    28.149253 -6.4756181e-13 -5.2756678e-13     57.10648     57.10648   -914.02867   -914.02867 -5.4125094e-13   -497263.39            0    1424680.9 
       0.004        4    436.86457    22.769747 -1.5649311e-13 -3.9584366e-14     57.10648     57.10648   -917.45532   -917.45532 -1.970274e-12    -497263.4            0    1424680.9 
       0.005        5    436.86457    15.459859 -4.4338712e-14 -8.460043e-13     57.10648     57.10648   -922.54335   -922.54335 -6.6648947e-13    -497263.4            0    1424680.9 
       0.006        6    436.86457    12.792724 -6.5640602e-13 -7.4229447e-13     57.10648     57.10648   -924.29598   -924.29598 -2.9567034e-13    -497263.4            0    1424680.9 
       0.007        7    436.86457    11.298523 -2.76753e-13 7.3208541e-13     57.10648     57.10648   -925.04899   -925.04899 -2.2318385e-12    -497263.4            0    1424680.9 
       0.008        8    436.86457    10.158465 3.8960117e-13 9.018069e-13     57.10648     57.10648   -925.72096   -925.72096 -7.8722336e-13    -497263.4            0    1424680.9 
       0.009        9    436.86457    8.7822335 -8.6620664e-13 -2.0612402e-13     57.10648     57.10648   -926.61722   -926.61722 6.1106382e-13    -497263.4            0    1424680.9 
        0.01       10    436.86457    7.9756887 3.1302403e-13 9.8055062e-13     57.10648     57.10648   -927.10962   -927.10962 -1.7927067e-13    -497263.4            0    1424680.9 
       0.011       11    436.86457    7.3895153 -1.1678701e-13 -6.8956762e-13     57.10648     57.10648   -927.43503   -927.43503 4.0853251e-14    -497263.4            0    1424680.9 
       0.012       12    436.86457    6.8833877 -1.2356746e-12 3.7080904e-13     57.10648     57.10648    -927.7324    -927.7324 5.6302358e-15    -497263.4            0    1424680.9 
       0.013       13    436.86457    6.3274472 8.0409514e-13 -6.4543994e-13     57.10648     57.10648   -928.08443   -928.08443 1.7856257e-13    -497263.4            0    1424680.9 
       0.014       14    436.86457    5.9317412 1.4195045e-12 3.846326e-13     57.10648     57.10648   -928.32489   -928.32489 1.0476713e-13    -497263.4            0    1424680.9 
       0.015       15    436.86457    5.6267772 4.3278765e-13 6.5867106e-13     57.10648     57.10648   -928.49523   -928.49523 5.5177735e-13    -497263.4            0    1424680.9 
       0.016       16    436.86457    5.3396062 -5.8800591e-13 1.5918929e-13     57.10648     57.10648   -928.66612   -928.66612 -4.796662e-14    -497263.4            0    1424680.9 
       0.017       17    436.86457    5.0405437 2.0113542e-13 1.6350758e-12     57.10648     57.10648   -928.85271   -928.85271 -6.786865e-14    -497263.4            0    1424680.9 
       0.018       18    436.86457    4.8076098 6.2249952e-13 4.0259143e-13     57.10648     57.10648   -928.99267   -928.99267 4.1800077e-14    -497263.4            0    1424680.9 
       0.019       19    436.86457    4.6186846 -1.1333522e-13 5.7677962e-13     57.10648     57.10648   -929.10002   -929.10002 -4.5417926e-13    -497263.4            0    1424680.9 
        0.02       20    436.86457     4.433151 -2.1962816e-13 -5.8933673e-13     57.10648     57.10648   -929.21062   -929.21062 3.0302019e-13    -497263.4            0    1424680.9 
       0.021       21    436.86457    4.2464509 -9.6806245e-13 -5.3061085e-13     57.10648     57.10648   -929.32623   -929.32623 -5.5488944e-13    -497263.4            0    1424680.9 
       0.022       22    436.86457    4.0922427 4.5794681e-13 -1.4640196e-12     57.10648     57.10648   -929.41835   -929.41835 -2.1251958e-12    -497263.4            0    1424680.9 
       0.023       23    436.86457    3.9634838 4.1519437e-12 -9.6342623e-12     57.10648     57.10648   -929.49207   -929.49207 -1.3962891e-11    -497263.4            0    1424680.9 
       0.024       24    436.86457    3.8332457 4.019172e-11 -7.6485228e-11     57.10648     57.10648   -929.57003   -929.57003 -1.3928055e-10    -497263.4            0    1424680.9 
       0.025       25    436.86457    3.7072183 2.8094864e-10 -5.202138e-10     57.10648     57.10648   -929.64755   -929.64755 -1.0392766e-09    -497263.4            0    1424680.9 
       0.026       26    436.86457    3.6106601 1.5536365e-09 -2.7778013e-09     57.10648     57.10648   -929.70516   -929.70516 -6.002721e-09    -497263.4            0    1424680.9 
       0.027       27    436.86457    3.5363769 1.1199653e-09 -1.8668724e-09     57.10648     57.10648    -929.7483    -929.7483 -4.7162413e-09    -497263.4            0    1424680.9 
       0.028       28    436.86457    3.4546041 2.5248601e-10 -2.9766194e-10     57.10648     57.10648   -929.79603   -929.79603 -1.4638537e-09    -497263.4            0    1424680.9 
       0.029       29    436.86457    3.3574146 1.4157456e-10 -6.7391452e-11     57.10648     57.10648   -929.85515   -929.85515 -1.8743664e-09    -497263.4            0    1424680.9 
        0.03       30    436.86457    3.2783579 1.7703455e-10 -2.086964e-10     57.10648     57.10648   -929.90325   -929.90325 -6.2399851e-09    -497263.4            0    1424680.9 
       0.031       31    436.86457    3.2171769 -1.4244661e-11 -2.4297376e-10     57.10648     57.10648   -929.93938   -929.93938 -6.7539844e-09    -497263.4            0    1424680.9 
       0.032       32    436.86457    3.1532475 -6.9419867e-11 1.4015241e-11     57.10648     57.10648   -929.97644   -929.97644 -1.3617173e-09    -497263.4            0    1424680.9 
       0.033       33    436.86457    3.0832484 5.5231352e-12 9.6745428e-11     57.10648     57.10648   -930.01815   -930.01815 -9.7064065e-10    -497263.4            0    1424680.9 
       0.034       34    436.86457    3.0187185 2.0367585e-10 1.6683239e-10     57.10648     57.10648   -930.05751   -930.05751 -2.5829406e-09    -497263.4            0    1424680.9 
       0.035       35    436.86457    2.9681964 1.1207984e-10 5.7794747e-11     57.10648     57.10648   -930.08798   -930.08798 -2.2457671e-09    -497263.4            0    1424680.9 
       0.036       36    436.86457    2.9111435 -3.0265724e-11 -1.6878149e-11     57.10648     57.10648   -930.12147   -930.12147 -9.4960574e-10    -497263.4            0    1424680.9 
       0.037       37    436.86457    2.8584158 -6.924453e-12 -3.3229288e-11     57.10648     57.10648   -930.15228   -930.15228 -1.4506557e-09    -497263.4            0    1424680.9 
       0.038       38    436.86457    2.8098654 1.6439611e-10 -2.4598783e-11     57.10648     57.10648   -930.18152   -930.18152 -3.0682581e-09    -497263.4            0    1424680.9 
       0.039       39    436.86457    2.7631336 1.1840914e-10 1.3488712e-12     57.10648     57.10648   -930.20994   -930.20994 -1.4637124e-09    -497263.4            0    1424680.9 
        0.04       40    436.86457    2.7138339 3.3918601e-11 -4.7057124e-11     57.10648     57.10648   -930.23942   -930.23942 -9.9056959e-10    -497263.4            0    1424680.9 
       0.041       41    436.86457     2.670912 -5.7050113e-11 -1.6707663e-10     57.10648     57.10648   -930.26448   -930.26448 -1.4894581e-09    -497263.4            0    1424680.9 
       0.042       42    436.86457    2.6351189 -7.0097129e-11 -1.4931406e-10     57.10648     57.10648   -930.28558   -930.28558 -1.1298893e-09    -497263.4            0    1424680.9 
       0.043       43    436.86457    2.5908562 -1.5963831e-11 -7.6348669e-11     57.10648     57.10648   -930.31228   -930.31228 -4.1138993e-10    -497263.4            0    1424680.9 
       0.044       44    436.86457    2.5482822 1.8702834e-11 -1.4941946e-10     57.10648     57.10648   -930.33808   -930.33808 -2.3589292e-10    -497263.4            0    1424680.9 
       0.045       45    436.86457     2.513267 6.2359726e-11 -2.8272211e-10     57.10648     57.10648   -930.35882   -930.35882 -9.777836e-11    -497263.4            0    1424680.9 
       0.046       46    436.86457    2.4799241 7.0160629e-11 -1.2729196e-10     57.10648     57.10648   -930.37832   -930.37832 -5.1548912e-11    -497263.4            0    1424680.9 
       0.047       47    436.86457    2.4431252 1.317381e-10 -9.0140044e-11     57.10648     57.10648   -930.40017   -930.40017 -1.5419622e-10    -497263.4            0    1424680.9 
       0.048       48    436.86457    2.4078638 2.6959816e-10 -1.5582169e-10     57.10648     57.10648   -930.42152   -930.42152 -4.0919767e-10    -497263.4            0    1424680.9 
       0.049       49    436.86457    2.3777494 2.1448739e-10 -1.1798367e-10     57.10648     57.10648   -930.43967   -930.43967 -3.8500115e-10    -497263.4            0    1424680.9 
        0.05       50    436.86457    2.3446434 1.5243735e-10 -5.085363e-11     57.10648     57.10648   -930.45922   -930.45922 -2.5616514e-10    -497263.4            0    1424680.9 
       0.051       51    436.86457     2.314596 2.6090762e-10 -7.9411956e-12     57.10648     57.10648   -930.47684   -930.47684 -2.6125723e-10    -497263.4            0    1424680.9 
       0.052       52    436.86457    2.2870709 3.0532866e-10 6.3389321e-11     57.10648     57.10648   -930.49329   -930.49329 -1.7675976e-10    -497263.4            0    1424680.9 
       0.053       53    436.86457    2.2567701 1.3287661e-10 7.5503599e-11     57.10648     57.10648   -930.51164   -930.51164 -8.1091599e-11    -497263.4            0    1424680.9 
       0.054       54    436.86457    2.2273843 1.1053569e-10 1.3439297e-10     57.10648     57.10648   -930.52923   -930.52923 -1.6016517e-10    -497263.4            0    1424680.9 
       0.055       55    436.86457     2.202316 1.0585021e-10 2.0872867e-10     57.10648     57.10648   -930.54398   -930.54398 -2.0173988e-10    -497263.4            0    1424680.9 
       0.056       56    436.86457    2.1778403 3.7614448e-11 1.5752932e-10     57.10648     57.10648   -930.55839   -930.55839 -6.1642004e-11    -497263.4            0    1424680.9 
       0.057       57    436.86457    2.1498428 3.0236929e-11 1.9534963e-10     57.10648     57.10648   -930.57519   -930.57519 -2.915517e-11    -497263.4            0    1424680.9 
       0.058       58    436.86457    2.1252153 4.5684878e-11 2.8275706e-10     57.10648     57.10648   -930.59007   -930.59007 -5.3658383e-11    -497263.4            0    1424680.9 
       0.059       59    436.86457    2.1019741 1.5544822e-11 2.2689982e-10     57.10648     57.10648   -930.60394   -930.60394 -3.5947647e-11    -497263.4            0    1424680.9 
        0.06       60    436.86457    2.0775581 -9.4955902e-12 2.0818833e-10     57.10648     57.10648   -930.61828   -930.61828 -3.7001537e-11    -497263.4            0    1424680.9 
       0.061       61    436.86457    2.0554096 -1.8963464e-11 3.2716071e-10     57.10648     57.10648    -930.6314    -930.6314 -9.174339e-11    -497263.4            0    1424680.9 
       0.062       62    436.86457    2.0334887 -1.1368752e-11 2.8837964e-10     57.10648     57.10648   -930.64458   -930.64458 -7.5948478e-11    -497263.4            0    1424680.9 
       0.063       63    436.86457    2.0102564 1.1474895e-12 2.1486428e-10     57.10648     57.10648   -930.65859   -930.65859 -5.2483039e-11    -497263.4            0    1424680.9 
       0.064       64    436.86457    1.9886309 2.3800748e-11 2.6929234e-10     57.10648     57.10648   -930.67142   -930.67142 -7.2647857e-11    -497263.4            0    1424680.9 
       0.065       65    436.86457    1.9696528 1.9572923e-11 2.162549e-10     57.10648     57.10648   -930.68259   -930.68259 -2.4521057e-11    -497263.4            0    1424680.9 
       0.066       66    436.86457    1.9487718 7.1785608e-12 1.4710495e-10     57.10648     57.10648   -930.69499   -930.69499 1.845227e-11    -497263.4            0    1424680.9 
       0.067       67    436.86457    1.9273066 1.5803254e-11 1.4717024e-10     57.10648     57.10648   -930.70793   -930.70793 2.3091751e-11    -497263.4            0    1424680.9 
       0.068       68    436.86457    1.9088996 2.0187624e-11 1.4273881e-10     57.10648     57.10648   -930.71898   -930.71898 -2.1912017e-12    -497263.4            0    1424680.9 
       0.069       69    436.86457     1.889367 1.6352386e-11 1.1019872e-10     57.10648     57.10648   -930.73055   -930.73055 -2.0975407e-11    -497263.4            0    1424680.9 
        0.07       70    436.86457    1.8705535 2.7420539e-11 9.7479507e-11     57.10648     57.10648   -930.74163   -930.74163 -4.253724e-11    -497263.4            0    1424680.9 
       0.071       71    436.86457    1.8529927 3.8230806e-11 8.2387647e-11     57.10648     57.10648   -930.75211   -930.75211 -4.5832324e-11    -497263.4            0    1424680.9 
       0.072       72    436.86457    1.8342506 2.8634327e-11 6.1883533e-11     57.10648     57.10648   -930.76341   -930.76341 -3.9237327e-12    -497263.4            0    1424680.9 
       0.073       73    436.86457    1.8157556 3.6198777e-11 5.9735016e-11     57.10648     57.10648   -930.77447   -930.77447 3.4931604e-11    -497263.4            0    1424680.9 
       0.074       74    436.86457    1.7993167 4.0228762e-11 5.3295772e-11     57.10648     57.10648   -930.78418   -930.78418 6.1832549e-11    -497263.4            0    1424680.9 
       0.075       75    436.86457    1.7830065 2.0264957e-11 4.6121216e-11     57.10648     57.10648   -930.79381   -930.79381 3.2618931e-11    -497263.4            0    1424680.9 
       0.076       76    436.86457     1.765048 1.4701599e-11 5.0314152e-11     57.10648     57.10648   -930.80456   -930.80456 1.4709704e-11    -497263.4            0    1424680.9 
       0.077       77    436.86457    1.7488455 1.5024521e-11 5.8107591e-11     57.10648     57.10648   -930.81432   -930.81432 1.8747329e-11    -497263.4            0    1424680.9 
       0.078       78    436.86457    1.7329247 1.5055076e-11 5.5267745e-11     57.10648     57.10648   -930.82382   -930.82382 2.8286977e-11    -497263.4            0    1424680.9 
       0.079       79    436.86457    1.7164966 2.0371966e-11 5.2493989e-11     57.10648     57.10648   -930.83351   -930.83351 2.7179414e-11    -497263.4            0    1424680.9 
        0.08       80    436.86457     1.701643 1.8459015e-11 4.5884337e-11     57.10648     57.10648   -930.84231   -930.84231 1.6767064e-11    -497263.4            0    1424680.9 
       0.081       81    436.86457      1.68612 2.0457893e-12 2.8363823e-11     57.10648     57.10648   -930.85162   -930.85162 2.6873618e-12    -497263.4            0    1424680.9 
       0.082       82    436.86457    1.6700647 3.150153e-12 3.5203637e-11     57.10648     57.10648   -930.86128   -930.86128 -5.3698913e-13    -497263.4            0    1424680.9 
       0.083       83    436.86457    1.6553979  1.15467e-11 5.211785e-11     57.10648     57.10648   -930.86999   -930.86999 -3.8710835e-12    -497263.4            0    1424680.9 
       0.084       84    436.86457    1.6413941 -2.1999014e-13 3.9420441e-11     57.10648     57.10648   -930.87826   -930.87826 -4.6532519e-12    -497263.4            0    1424680.9 
       0.085       85    436.86457    1.6264856 -9.2875317e-12 3.9930677e-11     57.10648     57.10648   -930.88712   -930.88712 -1.46618e-12    -497263.4            0    1424680.9 
       0.086       86    436.86457    1.6119445 -9.3703239e-12 5.5168062e-11     57.10648     57.10648   -930.89585   -930.89585 1.6881081e-11    -497263.4            0    1424680.9 
       0.087       87    436.86457    1.5982371 -1.133807e-11 4.999116e-11     57.10648     57.10648   -930.90408   -930.90408 3.0841318e-11    -497263.4            0    1424680.9 
       0.088       88    436.86457    1.5837377 -1.7317369e-11 4.1815065e-11     57.10648     57.10648   -930.91268   -930.91268 2.5492336e-11    -497263.4            0    1424680.9 
       0.089       89    436.86457    1.5704906 -1.8903319e-11 3.6885992e-11     57.10648     57.10648    -930.9205    -930.9205 1.0736796e-11    -497263.4            0    1424680.9 
        0.09       90    436.86457    1.5573795 -1.7446823e-11 2.7435118e-11     57.10648     57.10648   -930.92831   -930.92831 1.9607846e-12    -497263.4            0    1424680.9 
       0.091       91    436.86457    1.5431026 -1.9209295e-11 2.4435091e-11     57.10648     57.10648   -930.93689   -930.93689 -9.7766787e-15    -497263.4            0    1424680.9 
       0.092       92    436.86457    1.5300157 -1.6608941e-11 2.4420345e-11     57.10648     57.10648   -930.94472   -930.94472 5.7176716e-13    -497263.4            0    1424680.9 
       0.093       93    436.86457    1.5174011 -9.3856534e-12 1.8280176e-11     57.10648     57.10648    -930.9522    -930.9522 1.2744208e-11    -497263.4            0    1424680.9 
       0.094       94    436.86457    1.5043402 -7.2417537e-12 1.2788814e-11     57.10648     57.10648   -930.95992   -930.95992 2.9803364e-11    -497263.4            0    1424680.9 
       0.095       95    436.86457    1.4914181 -6.223256e-12 1.9346956e-12     57.10648     57.10648   -930.96764   -930.96764 4.9893439e-11    -497263.4            0    1424680.9 
       0.096       96    436.86457    1.4790635 8.1230535e-13 -6.189156e-12     57.10648     57.10648   -930.97506   -930.97506 3.6488677e-11    -497263.4            0    1424680.9 
       0.097       97    436.86457    1.4661747 8.1517422e-12 -9.7413004e-12     57.10648     57.10648   -930.98276   -930.98276 2.3902503e-11    -497263.4            0    1424680.9 
       0.098       98    436.86457    1.4539416 1.0896185e-11 -1.12283e-11     57.10648     57.10648      -930.99      -930.99 2.3963149e-11    -497263.4            0    1424680.9 
       0.099       99    436.86457    1.4424699 8.2881315e-12 -4.5026166e-12     57.10648     57.10648   -930.99679   -930.99679 2.1609331e-11    -497263.4            0    1424680.9 
         0.1      100    436.86457    1.4296751 7.7960447e-12 4.2265083e-13     57.10648     57.10648   -931.00445   -931.00445 2.0214455e-11    -497263.4            0    1424680.9 
       0.101      101    436.86457    1.4174812 1.1478846e-11 5.3544641e-12     57.10648     57.10648   -931.01177   -931.01177 2.1111965e-11    -497263.4            0    1424680.9 
       0.102      102    436.86457    1.4060595 1.3109327e-11 6.7823712e-12     57.10648     57.10648   -931.01857   -931.01857 1.1766008e-11    -497263.4            0    1424680.9 
       0.103      103    436.86457    1.3941448 1.1418666e-11 4.2839613e-12     57.10648     57.10648   -931.02562   -931.02562 -1.5855347e-13    -497263.4            0    1424680.9 
       0.104      104    436.86457    1.3826059 1.1672668e-11 6.8446704e-12     57.10648     57.10648   -931.03247   -931.03247 -8.6760397e-12    -497263.4            0    1424680.9 
       0.105      105    436.86457    1.3712167 7.2889107e-12 2.711698e-12     57.10648     57.10648    -931.0393    -931.0393 -4.2074054e-12    -497263.4            0    1424680.9 
       0.106      106    436.86457    1.3594531 9.0533421e-12 -3.4584595e-13     57.10648     57.10648   -931.04635   -931.04635 8.9645648e-15    -497263.4            0    1424680.9 
       0.107      107    436.86457    1.3480848 8.2382832e-12 2.0367464e-12     57.10648     57.10648   -931.05311   -931.05311 4.0702898e-12    -497263.4            0    1424680.9 
       0.108      108    436.86457    1.3374737 5.6463436e-12 -6.0315654e-12     57.10648     57.10648   -931.05938   -931.05938 1.2234046e-11    -497263.4            0    1424680.9 
       0.109      109    436.86457    1.3261328 6.0775157e-12 -1.1317175e-11     57.10648     57.10648   -931.06613   -931.06613 1.9515204e-11    -497263.4            0    1424680.9 
        0.11      110    436.86457    1.3148092 5.8787311e-12 -5.5273526e-12     57.10648     57.10648   -931.07292   -931.07292 1.4688629e-11    -497263.4            0    1424680.9 
       0.111      111    436.86457    1.3042263 4.0118291e-12 -5.6779519e-12     57.10648     57.10648   -931.07926   -931.07926 2.7070028e-12    -497263.4            0    1424680.9 
       0.112      112    436.86457    1.2930922 1.1366653e-11 -1.1176041e-11     57.10648     57.10648   -931.08587   -931.08587 -4.3962732e-13    -497263.4            0    1424680.9 
       0.113      113    436.86457    1.2827754 1.7479376e-11 -1.2116474e-11     57.10648     57.10648   -931.09197   -931.09197 3.3585903e-12    -497263.4            0    1424680.9 
       0.114      114    436.86457    1.2734085 1.3405477e-11 -1.5229912e-11     57.10648     57.10648   -931.09756   -931.09756 3.5425991e-12    -497263.4            0    1424680.9 
       0.115      115    436.86457    1.2653633 6.7069639e-12 -1.6341691e-11     57.10648     57.10648   -931.10239   -931.10239 2.0967703e-12    -497263.4            0    1424680.9 
       0.116      116    436.86457    1.2606297 4.5246901e-12 -1.4859131e-11     57.10648     57.10648   -931.10522   -931.10522 1.5866077e-12    -497263.4            0    1424680.9 
       0.117      117    436.86457    1.2584198 2.3575637e-12 -1.3043703e-11     57.10648     57.10648   -931.10652   -931.10652 8.693451e-13    -497263.4            0    1424680.9 
       0.118      118    436.86457    1.2573396 2.7273582e-12 -1.3420941e-11     57.10648     57.10648   -931.10715   -931.10715 6.4579112e-13    -497263.4            0    1424680.9 
       0.119      119    436.86457    1.2563438 2.100463e-12 -1.2691411e-11     57.10648     57.10648   -931.10775   -931.10775 -4.7074543e-13    -497263.4            0    1424680.9 
        0.12      120    436.86457    1.2537274 3.2852946e-12 -1.4022221e-11     57.10648     57.10648   -931.10933   -931.10933 -1.3887711e-12    -497263.4            0    1424680.9 
       0.121      121    436.86457    1.2377025 1.056583e-11 -1.5274179e-11     57.10648     57.10648   -931.11892   -931.11892 -1.34084e-11    -497263.4            0    1424680.9 
       0.122      122    436.86457    1.1197068 1.2598891e-10 5.9025737e-11     57.10648     57.10648   -931.18924   -931.18924 -1.2669944e-10    -497263.4            0    1424680.9 
       0.123      123    436.86457    0.5651649 3.0614919e-11 2.3272504e-10     57.10648     57.10648   -931.51952   -931.51952 -3.1843263e-10    -497263.4            0    1424680.9 
       0.124      124    436.86457  0.084405747 -2.080033e-10 4.0082362e-11     57.10648     57.10648   -931.80596   -931.80596 -1.0418442e-10    -497263.4            0    1424680.9 
       0.125      125    436.86457  0.014953643 -3.0608055e-10 -9.968203e-11     57.10648     57.10648   -931.84742   -931.84742 -1.0884159e-11    -497263.4            0    1424680.9 
       0.126      126    436.86457 0.0071135723 -3.311292e-10 -8.2371748e-11     57.10648     57.10648   -931.85214   -931.85214 -1.8440524e-12    -497263.4            0    1424680.9 
       0.127      127    436.86457 0.0045473411 -3.5507669e-10 -1.969437e-11     57.10648     57.10648   -931.85369   -931.85369 -3.0480548e-13    -497263.4            0    1424680.9 
       0.128      128    436.86457 0.0015567874 -3.9147524e-10 1.0579366e-10     57.10648     57.10648   -931.85548   -931.85548 2.3873705e-13    -497263.4            0    1424680.9 
       0.129      129    436.86457 0.00058747274 -3.943493e-10 1.6344848e-10     57.10648     57.10648   -931.85604   -931.85604 6.7549949e-14    -497263.4            0    1424680.9 
        0.13      130    436.86457 0.00044037644 -3.8028763e-10 1.8827111e-10     57.10648     57.10648   -931.85612   -931.85612 -1.4902607e-13    -497263.4            0    1424680.9 
       0.131      131    436.86457 0.00026897351 -3.3899551e-10 2.368555e-10     57.10648     57.10648   -931.85622   -931.85622 3.957283e-13    -497263.4            0    1424680.9 
       0.132      132    436.86457 0.00012785665 -3.0105015e-10 2.7330306e-10     57.10648     57.10648    -931.8563    -931.8563 -2.8972336e-13    -497263.4            0    1424680.9 
Loop time of 15.1959 on 64 procs for 132 steps with 120800 atoms

84.7% CPU use with 64 MPI tasks x 1 OpenMP threads

Minimization stats:
  Stopping criterion = energy tolerance
  Energy initial, next-to-last, final = 
     -497261.355337392  -497263.401315488  -497263.401315488
  Force two-norm initial, final = 7.1080974 1.4108036e-05
  Force max component initial, final = 0.19826945 1.9317776e-07
  Final line search alpha, max atom move = 1.0000000 1.9317776e-07
  Iterations, force evaluations = 132 264

MPI task timing breakdown:
Section |  min time  |  avg time  |  max time  |%varavg| %total
---------------------------------------------------------------
Pair    | 8.1923     | 8.6613     | 9.1271     |   7.7 | 57.00
Neigh   | 0          | 0          | 0          |   0.0 |  0.00
Comm    | 3.1327     | 3.4613     | 3.5873     |   5.2 | 22.78
Output  | 0.48743    | 0.48995    | 0.49356    |   0.2 |  3.22
Modify  | 0          | 0          | 0          |   0.0 |  0.00
Other   |            | 2.583      |            |       | 17.00

Nlocal:        1887.50 ave        2000 max        1600 min
Histogram: 4 0 0 0 0 0 0 56 0 4
Nghost:        5147.12 ave        5315 max        4353 min
Histogram: 4 0 0 4 0 0 0 16 4 36
Neighs:         0.00000 ave           0 max           0 min
Histogram: 64 0 0 0 0 0 0 0 0 0
FullNghs:      315025.0 ave      336000 max      252200 min
Histogram: 4 0 0 0 0 0 4 52 0 4

Total # of neighbors = 20161600
Ave neighs/atom = 166.90066
Neighbor list builds = 0
Dangerous builds = 0
variable oshikko equal pxx
variable p0 equal ${oshikko}
variable p0 equal 0.00012785664710753
variable unko equal lx
variable lx0 equal ${unko}
variable lx0 equal 436.864572

variable current_time equal time

variable boxlen equal lx
variable boxwidth equal ly
variable pressure equal pxx
variable epsilon equal ln(lx/${lx0})
variable epsilon equal ln(lx/436.864572)
variable sigma equal abs(pxx-${p0})
variable sigma equal abs(pxx-0.00012785664710753)

# initial Settings end here #

#fix strain all deform 1000 x trate 0.0001
#fix strain1 all deform 1 x scale 1.0001
#run 1
#minimize 1.0e-30 1.0e-30 100000 100000
#unfix strain1
#fix strain2 all deform 1 x scale 1.0001
#run 1
#minimize 1.0e-30 1.0e-30 100000 100000
#unfix strain2
#fix strain1 all deform 1 x scale 1.0001
#run 1
#minimize 1.0e-30 1.0e-30 100000 100000
#quit


label		deformationLoop
#variable	i loop 25
if "$j == 1" then "jump SELF initialmm"
jump SELF initialmm
minimize 1.0e-30 1.0e-30 100000 100000
WARNING: Using 'neigh_modify every 1 delay 0 check yes' setting during minimization (../min.cpp:188)
Per MPI rank memory allocation (min/avg/max) = 2.333 | 2.508 | 2.547 Mbytes
Time Step Lx Pxx Pxy Pxz Ly Lz Pyy Pzz Pyz TotEng Temp Volume 
       0.132      132    436.86457 0.00012785665 -3.0079961e-10 2.7340303e-10     57.10648     57.10648    -931.8563    -931.8563 -1.2619569e-13    -497263.4            0    1424680.9 
       0.133      133    436.86457 0.00011763576 -2.9616248e-10 2.7270747e-10     57.10648     57.10648   -931.85631   -931.85631 -1.3098801e-13    -497263.4            0    1424680.9 
       0.134      134    436.86457 0.00010401342 -2.8287505e-10 2.7347075e-10     57.10648     57.10648   -931.85632   -931.85632 -2.4273472e-13    -497263.4            0    1424680.9 
Loop time of 0.310828 on 64 procs for 2 steps with 120800 atoms

85.2% CPU use with 64 MPI tasks x 1 OpenMP threads

Minimization stats:
  Stopping criterion = energy tolerance
  Energy initial, next-to-last, final = 
     -497263.401315488  -497263.401315488  -497263.401315488
  Force two-norm initial, final = 1.4108036e-05 8.5062557e-06
  Force max component initial, final = 1.9317776e-07 1.0036973e-07
  Final line search alpha, max atom move = 1.0000000 1.0036973e-07
  Iterations, force evaluations = 2 4

MPI task timing breakdown:
Section |  min time  |  avg time  |  max time  |%varavg| %total
---------------------------------------------------------------
Pair    | 0.13288    | 0.16236    | 0.20637    |   5.2 | 52.23
Neigh   | 0          | 0          | 0          |   0.0 |  0.00
Comm    | 0.056667   | 0.088695   | 0.11306    |   6.0 | 28.54
Output  | 0.0041283  | 0.0041956  | 0.0042716  |   0.1 |  1.35
Modify  | 0          | 0          | 0          |   0.0 |  0.00
Other   |            | 0.05558    |            |       | 17.88

Nlocal:        1887.50 ave        2005 max        1595 min
Histogram: 4 0 0 0 0 0 0 56 0 4
Nghost:        5147.12 ave        5330 max        4343 min
Histogram: 4 0 0 4 0 0 0 16 4 36
Neighs:         0.00000 ave           0 max           0 min
Histogram: 64 0 0 0 0 0 0 0 0 0
FullNghs:      315025.0 ave      336840 max      251168 min
Histogram: 4 0 0 0 0 3 1 39 13 4

Total # of neighbors = 20161600
Ave neighs/atom = 166.90066
Neighbor list builds = 0
Dangerous builds = 0
print 		"${boxlen} ${boxwidth} ${pressure} ${sigma} ${epsilon} ${current_time} $t" append sstest.txt
436.864572 57.10648 0.000104013424751954 2.38432223555764e-05 0 0.134 0
print 		"${boxlen} ${boxwidth} ${pressure} ${sigma} ${epsilon} ${current_time} $t" append ssminimize.txt
436.864572 57.10648 0.000104013424751954 2.38432223555764e-05 0 0.134 0
write_data aftermm.lat
System init for write_data ...
jump SELF deform
variable 	expRate equal 1+0.0001*$j
variable 	expRate equal 1+0.0001*1
fix strain 	all deform 1 x scale ${expRate}
fix strain 	all deform 1 x scale 1.0001
run 		1
Per MPI rank memory allocation (min/avg/max) = 1.901 | 2.023 | 2.050 Mbytes
Time Step Lx Pxx Pxy Pxz Ly Lz Pyy Pzz Pyz TotEng Temp Volume 
           0      134    436.86457 0.00010401342 -2.8310321e-10 2.7322652e-10     57.10648     57.10648   -931.85632   -931.85632 -8.6502713e-14    -497263.4            0    1424680.9 
       0.001      135    436.90826 0.00010401039 -2.8264018e-10 2.7410658e-10     57.10648     57.10648   -931.76315   -931.76315 7.4373333e-14    -497263.4 3.999315e-16    1424823.4 
Loop time of 0.0615209 on 64 procs for 1 steps with 120800 atoms

Performance: 1.404 ns/day, 17.089 hours/ns, 16.255 timesteps/s
81.6% CPU use with 64 MPI tasks x 1 OpenMP threads

MPI task timing breakdown:
Section |  min time  |  avg time  |  max time  |%varavg| %total
---------------------------------------------------------------
Pair    | 0.027072   | 0.032127   | 0.036735   |   1.3 | 52.22
Neigh   | 0          | 0          | 0          |   0.0 |  0.00
Comm    | 0.012257   | 0.01626    | 0.023188   |   2.0 | 26.43
Output  | 0.0035253  | 0.0047275  | 0.0074116  |   1.2 |  7.68
Modify  | 0.0021515  | 0.0048162  | 0.0070394  |   1.7 |  7.83
Other   |            | 0.00359    |            |       |  5.83

Nlocal:        1887.50 ave        2006 max        1591 min
Histogram: 4 0 0 0 0 0 0 56 0 4
Nghost:        5147.12 ave        5331 max        4346 min
Histogram: 4 0 0 4 0 0 0 16 4 36
Neighs:         0.00000 ave           0 max           0 min
Histogram: 64 0 0 0 0 0 0 0 0 0
FullNghs:      315025.0 ave      337008 max      250623 min
Histogram: 4 0 0 0 0 2 2 37 15 4

Total # of neighbors = 20161600
Ave neighs/atom = 166.90066
Neighbor list builds = 0
Dangerous builds = 0
print 		"${boxlen} ${boxwidth} ${pressure} ${sigma} ${epsilon} ${current_time} $t" append sstest.txt
436.9082584572 57.10648 0.00010401038892577 2.38462581817595e-05 9.99950003332973e-05 0.001 3.99931499894421e-16
print 		"run 1 end"
run 1 end
minimize 	1.0e-30 1.0e-30 100000 100000
WARNING: Using 'neigh_modify every 1 delay 0 check yes' setting during minimization (../min.cpp:188)
Per MPI rank memory allocation (min/avg/max) = 2.333 | 2.508 | 2.547 Mbytes
Time Step Lx Pxx Pxy Pxz Ly Lz Pyy Pzz Pyz TotEng Temp Volume 
       0.001      135    436.90826   -239.09489 -2.8342489e-10 2.7358088e-10     57.10648     57.10648   -1074.4569   -1074.4569 -8.5629346e-14   -497263.39 3.999315e-16    1424823.4 
       0.002      136    436.90826   -236.67644 -2.669986e-10 2.7698423e-10     57.10648     57.10648   -1072.6948   -1072.6948 4.5713658e-13   -497263.39 3.999315e-16    1424823.4 
       0.003      137    436.90826   -234.22451 -2.366284e-10 2.9173744e-10     57.10648     57.10648   -1071.3113   -1071.3113 3.0572686e-12   -497263.39 3.999315e-16    1424823.4 
       0.004      138    436.90826    -231.8015 -1.8184615e-10 4.6702949e-10     57.10648     57.10648   -1069.8305   -1069.8305 5.0107148e-11   -497263.39 3.999315e-16    1424823.4 
       0.005      139    436.90826   -229.40702 -1.8836099e-11 2.5172747e-09     57.10648     57.10648   -1068.4244   -1068.4244 6.2542142e-10   -497263.39 3.999315e-16    1424823.4 
       0.006      140    436.90826    -227.0431 9.9628088e-10 2.448248e-08     57.10648     57.10648   -1067.0087   -1067.0087 7.1430144e-09   -497263.39 3.999315e-16    1424823.4 
       0.007      141    436.90826   -224.72867 7.8871345e-09 2.3116468e-07     57.10648     57.10648   -1065.6266   -1065.6267 7.1457723e-08   -497263.39 3.999315e-16    1424823.4 
       0.008      142    436.90826   -222.59289 3.5178898e-08 1.4976176e-06     57.10648     57.10648   -1064.3647   -1064.3647 4.8460268e-07   -497263.39 3.999315e-16    1424823.4 
       0.009      143    436.90826   -220.83064 1.6743089e-08 2.2182194e-06     57.10648     57.10648    -1063.309    -1063.309 7.6217054e-07   -497263.39 3.999315e-16    1424823.4 
        0.01      144    436.90826   -218.81413 -2.7855426e-08 6.0164155e-07     57.10648     57.10648   -1062.1008   -1062.1008 2.4323346e-07   -497263.39 3.999315e-16    1424823.4 
       0.011      145    436.90826   -216.53514 -4.2078575e-08 2.4041499e-07     57.10648     57.10648   -1060.7586   -1060.7586 1.1163313e-07   -497263.39 3.999315e-16    1424823.4 
       0.012      146    436.90826   -214.30827 -1.0463494e-07 5.0633938e-07     57.10648     57.10648   -1059.4171   -1059.4171 1.4563383e-07   -497263.39 3.999315e-16    1424823.4 
       0.013      147    436.90826   -212.46933 -2.0451449e-07 8.8415189e-07     57.10648     57.10648   -1058.3263   -1058.3263 2.1111595e-07   -497263.39 3.999315e-16    1424823.4 
       0.014      148    436.90826   -210.52548 -8.7356812e-08 2.6265154e-07     57.10648     57.10648   -1057.1776   -1057.1776 1.1198935e-07   -497263.39 3.999315e-16    1424823.4 
       0.015      149    436.90826   -208.25598 -1.2368541e-08 9.7946358e-08     57.10648     57.10648   -1055.8114   -1055.8114 1.1495507e-07   -497263.39 3.999315e-16    1424823.4 
       0.016      150    436.90826   -206.10978 1.7248217e-07 2.2354755e-07     57.10648     57.10648   -1054.5426   -1054.5426 2.8058766e-07   -497263.39 3.999315e-16    1424823.4 
       0.017      151    436.90826    -204.3247 2.2062881e-07 1.8327611e-07     57.10648     57.10648   -1053.4807   -1053.4807 2.6099895e-07   -497263.39 3.999315e-16    1424823.4 
       0.018      152    436.90826   -202.23656 1.4944524e-08 -1.1305174e-08     57.10648     57.10648   -1052.2272   -1052.2272 5.8160415e-08   -497263.39 3.999315e-16    1424823.4 
       0.019      153    436.90826   -199.98999 -3.1712402e-08 -4.3735276e-08     57.10648     57.10648   -1050.8974   -1050.8974 3.079698e-08   -497263.39 3.999315e-16    1424823.4 
        0.02      154    436.90826    -198.0361 1.7788662e-08 6.1851396e-09     57.10648     57.10648   -1049.7319   -1049.7319 3.6486847e-08   -497263.39 3.999315e-16    1424823.4 
       0.021      155    436.90826   -196.15665 4.938521e-08 1.2347758e-08     57.10648     57.10648   -1048.6073   -1048.6073 -2.8085565e-08   -497263.39 3.999315e-16    1424823.4 
       0.022      156    436.90826   -193.97565 4.7525748e-08 -3.7092472e-08     57.10648     57.10648   -1047.3134   -1047.3134 -9.6063511e-08   -497263.39 3.999315e-16    1424823.4 
       0.023      157    436.90826    -191.8915 8.3559611e-08 -9.2801789e-08     57.10648     57.10648   -1046.0715   -1046.0715 -2.0036201e-07   -497263.39 3.999315e-16    1424823.4 
       0.024      158    436.90826   -190.01414 3.8752548e-08 -6.5281761e-08     57.10648     57.10648   -1044.9495   -1044.9495 -1.5850507e-07   -497263.39 3.999315e-16    1424823.4 
       0.025      159    436.90826   -187.95626 -4.4530565e-08 -5.8371567e-08     57.10648     57.10648   -1043.7262   -1043.7262 -1.2866421e-07   -497263.39 3.999315e-16    1424823.4 
       0.026      160    436.90826   -185.87516 -1.0836379e-07 -1.3912823e-07     57.10648     57.10648   -1042.4885   -1042.4885 -2.2826493e-07   -497263.39 3.999315e-16    1424823.4 
       0.027      161    436.90826   -183.91222 -1.2477606e-07 -1.3095687e-07     57.10648     57.10648   -1041.3152   -1041.3152 -1.2399213e-07   -497263.39 3.999315e-16    1424823.4 
       0.028      162    436.90826   -181.88864 -8.2657344e-08 -4.7119597e-08     57.10648     57.10648   -1040.1108   -1040.1108 8.5480795e-08   -497263.39 3.999315e-16    1424823.4 
       0.029      163    436.90826   -179.87579 -4.2087407e-08 -5.8639607e-08     57.10648     57.10648   -1038.9152   -1038.9152 5.3435205e-08   -497263.39 3.999315e-16    1424823.4 
        0.03      164    436.90826   -177.91123 1.5430225e-09 -2.1771716e-08     57.10648     57.10648   -1037.7414   -1037.7414 -1.2501279e-07   -497263.39 3.999315e-16    1424823.4 
       0.031      165    436.90826   -175.84719 3.2775288e-08 1.2717088e-07     57.10648     57.10648    -1036.511    -1036.511 -2.5255588e-07   -497263.39 3.999315e-16    1424823.4 
       0.032      166    436.90826   -173.81456 5.6623839e-08 2.7046057e-07     57.10648     57.10648   -1035.3047   -1035.3047 -4.4848312e-07   -497263.39 3.999315e-16    1424823.4 
       0.033      167    436.90826    -171.8872 4.0715042e-08 2.2287555e-07     57.10648     57.10648   -1034.1539   -1034.1539 -3.9812648e-07   -497263.39 3.999315e-16    1424823.4 
       0.034      168    436.90826   -169.83827 2.8587665e-08 1.8830073e-07     57.10648     57.10648   -1032.9306   -1032.9306 -1.5603858e-07   -497263.39 3.999315e-16    1424823.4 
       0.035      169    436.90826   -167.75109 6.9546054e-08 3.5167767e-07     57.10648     57.10648    -1031.693    -1031.693 -3.3162416e-08   -497263.39 3.999315e-16    1424823.4 
       0.036      170    436.90826   -165.79996 9.1467441e-08 4.1784975e-07     57.10648     57.10648   -1030.5282   -1030.5282 7.6792643e-08   -497263.39 3.999315e-16    1424823.4 
       0.037      171    436.90826   -163.80384 1.7964921e-08 2.0458767e-07     57.10648     57.10648   -1029.3356   -1029.3356 8.039777e-08   -497263.39 3.999315e-16    1424823.4 
       0.038      172    436.90826   -161.73038 -5.7132949e-08 1.2154361e-07     57.10648     57.10648   -1028.1062   -1028.1062 -3.9119722e-08   -497263.39 3.999315e-16    1424823.4 
       0.039      173    436.90826   -159.74216 -7.3465461e-08 1.2903812e-07     57.10648     57.10648   -1026.9202   -1026.9202 -9.8264852e-08   -497263.39 3.999315e-16    1424823.4 
        0.04      174    436.90826   -157.73098 -1.3265777e-08 1.1034024e-07     57.10648     57.10648   -1025.7181   -1025.7181 2.0972565e-08   -497263.39 3.999315e-16    1424823.4 
       0.041      175    436.90826   -155.69769 -8.8995747e-09 1.148342e-07     57.10648     57.10648    -1024.512    -1024.512 6.9700547e-08   -497263.39 3.999315e-16    1424823.4 
       0.042      176    436.90826   -153.74503 -6.0494776e-08 9.5352296e-08     57.10648     57.10648   -1023.3486   -1023.3486 1.7732043e-09   -497263.39 3.999315e-16    1424823.4 
       0.043      177    436.90826   -151.69574 -5.0740803e-08 8.4301223e-08     57.10648     57.10648   -1022.1228   -1022.1228 -2.9534333e-08   -497263.39 3.999315e-16    1424823.4 
       0.044      178    436.90826   -149.63231 -2.5678299e-08 1.854578e-07     57.10648     57.10648   -1020.8986   -1020.8986 -1.163181e-07   -497263.39 3.999315e-16    1424823.4 
       0.045      179    436.90826   -147.70161 -6.9056859e-09 2.398678e-07     57.10648     57.10648   -1019.7489   -1019.7489 -2.4637441e-07   -497263.39 3.999315e-16    1424823.4 
       0.046      180    436.90826   -145.66921 4.4105985e-08 1.8015185e-07     57.10648     57.10648   -1018.5332   -1018.5332 -2.0817453e-07   -497263.39 3.999315e-16    1424823.4 
       0.047      181    436.90826   -143.60229 1.0380224e-07 2.101133e-07     57.10648     57.10648   -1017.3059   -1017.3059 -1.4208713e-07   -497263.39 3.999315e-16    1424823.4 
       0.048      182    436.90826    -141.6468 7.5887405e-08 1.8686016e-07     57.10648     57.10648   -1016.1423   -1016.1423 -4.7792309e-08    -497263.4 3.999315e-16    1424823.4 
       0.049      183    436.90826   -139.61469 5.4658136e-08 1.4939953e-07     57.10648     57.10648   -1014.9271   -1014.9271 2.0887589e-08    -497263.4 3.999315e-16    1424823.4 
        0.05      184    436.90826   -137.58319 8.2805776e-08 2.3059235e-07     57.10648     57.10648   -1013.7197   -1013.7197 5.3355276e-08    -497263.4 3.999315e-16    1424823.4 
       0.051      185    436.90826   -135.61952 8.5614632e-09 2.0894937e-07     57.10648     57.10648   -1012.5521   -1012.5522 -3.7628962e-09    -497263.4 3.999315e-16    1424823.4 
       0.052      186    436.90826    -133.5605 -9.7058072e-09 1.7986609e-07     57.10648     57.10648   -1011.3212   -1011.3212 -1.827335e-07    -497263.4 3.999315e-16    1424823.4 
       0.053      187    436.90826   -131.55515 7.5098801e-08 2.9754652e-07     57.10648     57.10648   -1010.1283   -1010.1283 -4.1020564e-07    -497263.4 3.999315e-16    1424823.4 
       0.054      188    436.90826   -129.60229 2.0520832e-08 2.5344646e-07     57.10648     57.10648   -1008.9677   -1008.9677 -3.2221324e-07    -497263.4 3.999315e-16    1424823.4 
       0.055      189    436.90826     -127.524 -3.7693858e-08 1.8789065e-07     57.10648     57.10648   -1007.7259   -1007.7259 -1.3800791e-07    -497263.4 3.999315e-16    1424823.4 
       0.056      190    436.90826   -125.50704 5.1806008e-08 3.231957e-07     57.10648     57.10648   -1006.5251   -1006.5251 -9.7643051e-09    -497263.4 3.999315e-16    1424823.4 
       0.057      191    436.90826   -123.54502 5.6621233e-08 3.7945979e-07     57.10648     57.10648   -1005.3592   -1005.3592 7.2934353e-08    -497263.4 3.999315e-16    1424823.4 
       0.058      192    436.90826   -121.48367 -5.003106e-08 3.4379386e-07     57.10648     57.10648   -1004.1285   -1004.1285 3.8525924e-08    -497263.4 3.999315e-16    1424823.4 
       0.059      193    436.90826   -119.48327 -6.5251969e-08 3.6419664e-07     57.10648     57.10648   -1002.9364   -1002.9364 -3.3245928e-08    -497263.4 3.999315e-16    1424823.4 
        0.06      194    436.90826   -117.49204 -3.6716432e-08 3.2694518e-07     57.10648     57.10648   -1001.7533   -1001.7533 -2.4297515e-08    -497263.4 3.999315e-16    1424823.4 
       0.061      195    436.90826   -115.43057 -7.9468239e-08 3.4396887e-07     57.10648     57.10648   -1000.5233   -1000.5233 2.3889874e-08    -497263.4 3.999315e-16    1424823.4 
       0.062      196    436.90826   -113.46125 -8.7884631e-08 3.4018434e-07     57.10648     57.10648   -999.34896   -999.34896 8.0056206e-08    -497263.4 3.999315e-16    1424823.4 
       0.063      197    436.90826   -111.46061 -4.1422166e-08 1.8869851e-07     57.10648     57.10648   -998.15995   -998.15995 9.8188062e-08    -497263.4 3.999315e-16    1424823.4 
       0.064      198    436.90826    -109.3827 -6.5620644e-08 1.7310973e-07     57.10648     57.10648   -996.92129   -996.92129 8.0831262e-08    -497263.4 3.999315e-16    1424823.4 
       0.065      199    436.90826   -107.41762 -7.8463322e-08 3.0959335e-07     57.10648     57.10648   -995.74884   -995.74884 7.0382933e-08    -497263.4 3.999315e-16    1424823.4 
       0.066      200    436.90826    -105.4325 -1.1265626e-08 3.1672581e-07     57.10648     57.10648   -994.56845   -994.56845  6.08321e-08    -497263.4 3.999315e-16    1424823.4 
       0.067      201    436.90826   -103.36202 1.0796716e-08 3.0588709e-07     57.10648     57.10648    -993.3355    -993.3355 3.6917407e-08    -497263.4 3.999315e-16    1424823.4 
       0.068      202    436.90826   -101.37606 -2.5862944e-08 3.5721138e-07     57.10648     57.10648   -992.15001   -992.15001 9.3866853e-08    -497263.4 3.999315e-16    1424823.4 
       0.069      203    436.90826   -99.381479 -5.6978292e-08 3.4824035e-07     57.10648     57.10648   -990.96336   -990.96336 2.1499915e-07    -497263.4 3.999315e-16    1424823.4 
        0.07      204    436.90826   -97.332999 -5.7916949e-08 3.4609653e-07     57.10648     57.10648   -989.74457   -989.74457 2.640027e-07    -497263.4 3.999315e-16    1424823.4 
       0.071      205    436.90826   -95.351511 -4.2684774e-08 3.1669186e-07     57.10648     57.10648   -988.56149    -988.5615 2.5223112e-07    -497263.4 3.999315e-16    1424823.4 
       0.072      206    436.90826   -93.338177 -5.5076111e-08 2.4869675e-07     57.10648     57.10648   -987.36284   -987.36284 2.0579129e-07    -497263.4 3.999315e-16    1424823.4 
       0.073      207    436.90826   -91.282589 -1.0847611e-07 2.8050484e-07     57.10648     57.10648   -986.14075   -986.14075 7.8838434e-08    -497263.4 3.999315e-16    1424823.4 
       0.074      208    436.90826   -89.316702 -1.24618e-07 3.1013121e-07     57.10648     57.10648   -984.96701   -984.96701 -1.0151873e-07    -497263.4 3.999315e-16    1424823.4 
       0.075      209    436.90826   -87.318636 -8.5730505e-08 2.2215533e-07     57.10648     57.10648   -983.77643   -983.77643 -3.2505461e-08    -497263.4 3.999315e-16    1424823.4 
       0.076      210    436.90826   -85.251134 -8.3418312e-08 2.0468144e-07     57.10648     57.10648   -982.54813   -982.54813 1.8014699e-07    -497263.4 3.999315e-16    1424823.4 
       0.077      211    436.90826   -83.268665 -7.7016258e-08 2.4917817e-07     57.10648     57.10648   -981.36462   -981.36462 3.4706819e-07    -497263.4 3.999315e-16    1424823.4 
       0.078      212    436.90826   -81.283002  -4.1104e-08 1.8898439e-07     57.10648     57.10648   -980.18066   -980.18067 3.0745191e-07    -497263.4 3.999315e-16    1424823.4 
       0.079      213    436.90826   -79.220066 9.8937631e-11 1.1782706e-07     57.10648     57.10648   -978.95551   -978.95551 2.3460042e-07    -497263.4 3.999315e-16    1424823.4 
        0.08      214    436.90826    -77.22227 8.641248e-08 1.2288971e-07     57.10648     57.10648   -977.76325   -977.76325   1.3904e-07    -497263.4 3.999315e-16    1424823.4 
       0.081      215    436.90826   -75.228368 1.0963128e-07 1.4470179e-07     57.10648     57.10648   -976.57374   -976.57374 2.856382e-08    -497263.4 3.999315e-16    1424823.4 
       0.082      216    436.90826   -73.177625 5.0427464e-08 1.5441393e-07     57.10648     57.10648   -975.35593   -975.35593 2.6466852e-08    -497263.4 3.999315e-16    1424823.4 
       0.083      217    436.90826   -71.201865 4.0021182e-08 1.6225783e-07     57.10648     57.10648   -974.17751   -974.17751 1.318005e-07    -497263.4 3.999315e-16    1424823.4 
       0.084      218    436.90826   -69.199343 9.0249132e-08 1.3141712e-07     57.10648     57.10648   -972.98213   -972.98213 1.8408559e-07    -497263.4 3.999315e-16    1424823.4 
       0.085      219    436.90826   -67.127378 1.3228717e-07 9.2702721e-08     57.10648     57.10648   -971.75163   -971.75163 1.5037136e-07    -497263.4 3.999315e-16    1424823.4 
       0.086      220    436.90826   -65.154116 1.5018462e-07 8.5041225e-09     57.10648     57.10648   -970.57529   -970.57529 7.8152929e-08    -497263.4 3.999315e-16    1424823.4 
       0.087      221    436.90826   -63.166235 8.408479e-08 -7.5083155e-08     57.10648     57.10648   -969.38834   -969.38834 3.5544204e-08    -497263.4 3.999315e-16    1424823.4 
       0.088      222    436.90826   -61.099927 2.2894231e-08 -1.0385493e-07     57.10648     57.10648   -968.16072   -968.16072 5.1906404e-08    -497263.4 3.999315e-16    1424823.4 
       0.089      223    436.90826   -59.110625 3.3007002e-08 -8.0750313e-08     57.10648     57.10648   -966.97561   -966.97561 1.5082026e-07    -497263.4 3.999315e-16    1424823.4 
        0.09      224    436.90826   -57.110521 4.1832111e-08 -6.3575377e-08     57.10648     57.10648    -965.7812    -965.7812 2.9940429e-07    -497263.4 3.999315e-16    1424823.4 
       0.091      225    436.90826   -55.070031 -1.3412004e-08 -1.0544216e-07     57.10648     57.10648   -964.56826   -964.56826 4.669006e-07    -497263.4 3.999315e-16    1424823.4 
       0.092      226    436.90826   -53.083729 -4.6903619e-08 -1.1363885e-07     57.10648     57.10648   -963.38583   -963.38583 5.2384168e-07    -497263.4 3.999315e-16    1424823.4 
       0.093      227    436.90826   -51.049268 -5.2669963e-08 -8.9578449e-08     57.10648     57.10648   -962.17079   -962.17079 3.9666853e-07    -497263.4 3.999315e-16    1424823.4 
       0.094      228    436.90826   -49.021255 -7.603923e-08 -5.165224e-08     57.10648     57.10648   -960.96465   -960.96465 2.8396735e-07    -497263.4 3.999315e-16    1424823.4 
       0.095      229    436.90826   -47.055282 -2.2967433e-08 6.1475259e-08     57.10648     57.10648   -959.79495   -959.79495 2.4012018e-07    -497263.4 3.999315e-16    1424823.4 
       0.096      230    436.90826    -45.00418 2.3739293e-08 9.4937282e-08     57.10648     57.10648   -958.57011   -958.57011 3.078327e-07    -497263.4 3.999315e-16    1424823.4 
       0.097      231    436.90826   -42.983222 8.7072168e-09 6.4138926e-08     57.10648     57.10648   -957.36748   -957.36748 4.5468646e-07    -497263.4 3.999315e-16    1424823.4 
       0.098      232    436.90826   -41.030424 3.0428975e-08 1.0847135e-07     57.10648     57.10648   -956.20602   -956.20602 4.7780665e-07    -497263.4 3.999315e-16    1424823.4 
       0.099      233    436.90826   -38.975155 7.0344304e-09 1.6236693e-07     57.10648     57.10648   -954.97913   -954.97913 4.8278511e-07    -497263.4 3.999315e-16    1424823.4 
         0.1      234    436.90826    -36.96581 -1.1481737e-07 1.6259867e-07     57.10648     57.10648    -953.7826    -953.7826 5.566403e-07    -497263.4 3.999315e-16    1424823.4 
       0.101      235    436.90826   -35.000298 -1.1243607e-07 1.5034417e-07     57.10648     57.10648   -952.61384   -952.61384 4.4899512e-07    -497263.4 3.999315e-16    1424823.4 
       0.102      236    436.90826    -32.92258 -6.9034807e-08 1.8825443e-07     57.10648     57.10648   -951.37415   -951.37415 4.4526944e-07    -497263.4 3.999315e-16    1424823.4 
       0.103      237    436.90826   -30.919692 -1.182933e-07 2.2654411e-07     57.10648     57.10648    -950.1808    -950.1808 6.0166323e-07    -497263.4 3.999315e-16    1424823.4 
       0.104      238    436.90826   -28.969982 -6.8991736e-08 1.7774142e-07     57.10648     57.10648   -949.02137   -949.02137 4.8289627e-07    -497263.4 3.999315e-16    1424823.4 
       0.105      239    436.90826   -26.887601 -1.2805122e-08 1.4310051e-07     57.10648     57.10648   -947.77974   -947.77974 4.4896042e-07    -497263.4 3.999315e-16    1424823.4 
       0.106      240    436.90826   -24.863505 -1.5430771e-08 1.6893333e-07     57.10648     57.10648   -946.57301   -946.57301 7.4332687e-07    -497263.4 3.999315e-16    1424823.4 
       0.107      241    436.90826   -22.920011 2.787774e-08 1.8462819e-07     57.10648     57.10648   -945.41713   -945.41713 7.3289984e-07    -497263.4 3.999315e-16    1424823.4 
       0.108      242    436.90826   -20.873704 2.0187158e-08 1.4566558e-07     57.10648     57.10648   -944.19791   -944.19791 4.3033875e-07    -497263.4 3.999315e-16    1424823.4 
       0.109      243    436.90826   -18.837415 7.0550326e-09 9.7581848e-08     57.10648     57.10648   -942.98313   -942.98313 2.8928262e-07    -497263.4 3.999315e-16    1424823.4 
        0.11      244    436.90826   -16.845899 1.2941623e-07 1.1854984e-07     57.10648     57.10648   -941.79858   -941.79858 3.162059e-07    -497263.4 3.999315e-16    1424823.4 
       0.111      245    436.90826   -14.838409 1.7558529e-07 1.5519935e-07     57.10648     57.10648   -940.60314   -940.60315 3.7511475e-07    -497263.4 3.999315e-16    1424823.4 
       0.112      246    436.90826   -12.852162 8.2116185e-08 1.1219497e-07     57.10648     57.10648   -939.41788   -939.41788 3.4558544e-07    -497263.4 3.999315e-16    1424823.4 
       0.113      247    436.90826   -10.814504 6.8289191e-08 8.9190866e-08     57.10648     57.10648   -938.20529   -938.20529 2.8424107e-07    -497263.4 3.999315e-16    1424823.4 
       0.114      248    436.90826   -8.7553868 9.8940115e-08 1.1760388e-07     57.10648     57.10648   -936.97984   -936.97984 2.771405e-07    -497263.4 3.999315e-16    1424823.4 
       0.115      249    436.90826    -6.815763 9.8282605e-08 1.2111167e-07     57.10648     57.10648   -935.82231   -935.82231 2.1165248e-07    -497263.4 3.999315e-16    1424823.4 
       0.116      250    436.90826   -4.9008643 1.3053159e-07 1.0060966e-07     57.10648     57.10648   -934.68206   -934.68206 9.4376757e-08    -497263.4 3.999315e-16    1424823.4 
       0.117      251    436.90826   -3.0502843 1.5091419e-07 1.0341905e-07     57.10648     57.10648   -933.58161   -933.58161 4.9642022e-08    -497263.4 3.999315e-16    1424823.4 
       0.118      252    436.90826   -1.5660922 1.2453867e-07 1.1080903e-07     57.10648     57.10648   -932.69547   -932.69547 4.3237712e-08    -497263.4 3.999315e-16    1424823.4 
       0.119      253    436.90826  -0.59243524 9.2979091e-08 9.2939003e-08     57.10648     57.10648   -932.11557   -932.11557 3.7378942e-08    -497263.4 3.999315e-16    1424823.4 
        0.12      254    436.90826  -0.11726989 6.7493227e-08 5.9150981e-08     57.10648     57.10648   -931.83364   -931.83364 1.6064343e-08    -497263.4 3.999315e-16    1424823.4 
       0.121      255    436.90826  0.041984491 5.2488983e-08 2.6699038e-08     57.10648     57.10648   -931.73814   -931.73814 1.4001371e-09    -497263.4 3.999315e-16    1424823.4 
       0.122      256    436.90826  0.083909063 4.7009997e-08 8.1401685e-09     57.10648     57.10648   -931.71306   -931.71306 -4.4002594e-10    -497263.4 3.999315e-16    1424823.4 
       0.123      257    436.90826  0.092382063 4.5709356e-08 3.437866e-09     57.10648     57.10648    -931.7082    -931.7082 -1.3361316e-10    -497263.4 3.999315e-16    1424823.4 
       0.124      258    436.90826  0.093727431 4.5156763e-08 2.582526e-09     57.10648     57.10648   -931.70737   -931.70737 -2.6651714e-11    -497263.4 3.999315e-16    1424823.4 
       0.125      259    436.90826  0.093906353 4.4685524e-08 2.532283e-09     57.10648     57.10648   -931.70724   -931.70724 -2.4635769e-12    -497263.4 3.999315e-16    1424823.4 
       0.126      260    436.90826  0.093919546 4.4245523e-08 2.6412203e-09     57.10648     57.10648   -931.70724   -931.70724 1.7867206e-13    -497263.4 3.999315e-16    1424823.4 
       0.127      261    436.90826  0.093915289 4.3821302e-08 2.761809e-09     57.10648     57.10648   -931.70725   -931.70725 1.0469946e-13    -497263.4 3.999315e-16    1424823.4 
       0.128      262    436.90826  0.093908091  4.33283e-08 2.9024767e-09     57.10648     57.10648   -931.70725   -931.70725 1.6545662e-13    -497263.4 3.999315e-16    1424823.4 
Loop time of 14.9215 on 64 procs for 127 steps with 120800 atoms

85.8% CPU use with 64 MPI tasks x 1 OpenMP threads

Minimization stats:
  Stopping criterion = energy tolerance
  Energy initial, next-to-last, final = 
     -497263.390685595  -497263.401315486  -497263.401315486
  Force two-norm initial, final = 0.028977436 8.3155447e-06
  Force max component initial, final = 0.00099980052 1.1397000e-07
  Final line search alpha, max atom move = 1.0000000 1.1397000e-07
  Iterations, force evaluations = 127 254

MPI task timing breakdown:
Section |  min time  |  avg time  |  max time  |%varavg| %total
---------------------------------------------------------------
Pair    | 6.5267     | 7.9039     | 9.2193     |  28.4 | 52.97
Neigh   | 0          | 0          | 0          |   0.0 |  0.00
Comm    | 2.8612     | 3.8434     | 5.5346     |  42.0 | 25.76
Output  | 0.45797    | 0.45957    | 0.46162    |   0.1 |  3.08
Modify  | 0          | 0          | 0          |   0.0 |  0.00
Other   |            | 2.715      |            |       | 18.19

Nlocal:        1887.50 ave        2006 max        1591 min
Histogram: 4 0 0 0 0 0 0 56 0 4
Nghost:        5147.12 ave        5331 max        4346 min
Histogram: 4 0 0 4 0 0 0 16 4 36
Neighs:         0.00000 ave           0 max           0 min
Histogram: 64 0 0 0 0 0 0 0 0 0
FullNghs:      315025.0 ave      337008 max      250623 min
Histogram: 4 0 0 0 0 2 2 37 15 4

Total # of neighbors = 20161600
Ave neighs/atom = 166.90066
Neighbor list builds = 0
Dangerous builds = 0
print 		"${boxlen} ${boxwidth} ${pressure} ${sigma} ${epsilon} ${current_time} $t" append ssminimize.txt
436.9082584572 57.10648 0.0939080914912781 0.0937802348441706 9.99950003332973e-05 0.128 3.99931499894421e-16
print 		"minimize end"
minimize end
unfix strain
#if "$i == 25" then quit
clear
  using 1 OpenMP thread(s) per MPI task
package kokkos
next j
Increment via next: value 2 on partition 0
jump SELF initialSettings
variable atmos        equal 1.01325                    # Atomic Mass

units       metal
atom_style  atomic
boundary p p p
if "$j ==1" then "read_data ./Fe_tensile.lat" else "read_data ./aftermm.lat"
read_data ./aftermm.lat
Reading data file ...
  orthogonal box = (0.0000000 0.0000000 0.0000000) to (436.86457 57.106480 57.106480)
  16 by 2 by 2 MPI processor grid
  reading atoms ...
  120800 atoms
  reading velocities ...
  120800 velocities
  read_data CPU = 0.535 seconds

#timestep    0.01
#timestep 0.1

pair_style  eam/alloy
pair_coeff  * * ./FeCuNi.eam.alloy Fe Fe Fe Fe Fe Fe Fe Fe Fe
#pair_coeff  * * ./new_potential/FeCuNi.eam.alloy Fe Fe Fe Fe Cu
#mass        *4 ${mass}
#pair_style  aenet
#pair_coeff  * * v03 Fe 10sw-10sw.nn Fe Fe Fe Fe Fe
#pair_coeff  * * ./new_potential/FeCuNi.eam.alloy Fe Fe Fe Fe Cu
#mass        *4 ${mass}
mass        * 55.845
#mass        5 58.454 correct value!!!

#group naming
group source type 2
800 atoms in group source
group detector type 3
800 atoms in group detector
group edge type 5
0 atoms in group edge
group edge_buf type 7
0 atoms in group edge_buf
group buffer type 7 8 9
0 atoms in group buffer
#group longage type 9

variable s equal xcm(source,x)
variable d equal xcm(detector,x)
variable g equal xcm(edge,x)
variable t equal temp
variable p equal press
variable v equal vol
variable e equal etotal
variable i equal time
variable FIG string iranai
variable f equal fcm(detector,x)
variable l equal vcm(detector,x)

##############################################
variable rescaleSteps equal 0
variable relaxationSteps equal 0
variable initialSteps equal ${rescaleSteps}+${relaxationSteps}
variable initialSteps equal 0+${relaxationSteps}
variable initialSteps equal 0+0
##############################################

#dump fuck all atom 1 strain.dump
#dump_modify fuck scale no

thermo 1
thermo_style custom time step lx pxx pxy pxz ly lz pyy pzz pyz etotal temp vol

#fix extra all print 1 "$i $s $d $g $l $f $t $v $e $p" file outp.txt

fix nve1 all nve
minimize 1.0e-30 1.0e-30 100000 100000
WARNING: Using 'neigh_modify every 1 delay 0 check yes' setting during minimization (../min.cpp:188)
Neighbor list info ...
  update every 1 steps, delay 0 steps, check yes
  max neighbors/atom: 2000, page size: 100000
  master list distance cutoff = 7.6
  ghost atom cutoff = 7.6
  binsize = 7.6, bins = 58 8 8
  1 neighbor lists, perpetual/occasional/extra = 1 0 0
  (1) pair eam/alloy/kk, perpetual
      attributes: full, newton off, kokkos_device
      pair build: full/bin/kk/device
      stencil: full/bin/3d
      bin: kk/device
Per MPI rank memory allocation (min/avg/max) = 2.301 | 2.470 | 2.508 Mbytes
Time Step Lx Pxx Pxy Pxz Ly Lz Pyy Pzz Pyz TotEng Temp Volume 
           0        0    436.86457 0.00010401342 -2.8304976e-10 2.7320384e-10     57.10648     57.10648   -931.85632   -931.85632 -8.2856256e-14    -497263.4            0    1424680.9 
       0.001        1    436.86457 0.0001118081 -2.7688375e-10 2.7313314e-10     57.10648     57.10648   -931.85632   -931.85632 -2.5991817e-13    -497263.4            0    1424680.9 
       0.002        2    436.86457 0.00012321891 -2.6171105e-10 2.7580035e-10     57.10648     57.10648   -931.85631   -931.85631 1.4299724e-13    -497263.4            0    1424680.9 
Loop time of 0.428591 on 64 procs for 2 steps with 120800 atoms

86.0% CPU use with 64 MPI tasks x 1 OpenMP threads

Minimization stats:
  Stopping criterion = energy tolerance
  Energy initial, next-to-last, final = 
     -497263.401315488  -497263.401315488  -497263.401315488
  Force two-norm initial, final = 8.5062557e-06 6.9093819e-06
  Force max component initial, final = 1.0036973e-07 7.6277178e-08
  Final line search alpha, max atom move = 1.0000000 7.6277178e-08
  Iterations, force evaluations = 2 4

MPI task timing breakdown:
Section |  min time  |  avg time  |  max time  |%varavg| %total
---------------------------------------------------------------
Pair    | 0.14781    | 0.19759    | 0.26963    |   8.8 | 46.10
Neigh   | 0          | 0          | 0          |   0.0 |  0.00
Comm    | 0.082822   | 0.15605    | 0.21156    |  11.3 | 36.41
Output  | 0.0035259  | 0.0036004  | 0.0037107  |   0.1 |  0.84
Modify  | 0          | 0          | 0          |   0.0 |  0.00
Other   |            | 0.07134    |            |       | 16.65

Nlocal:        1887.50 ave        2006 max        1591 min
Histogram: 4 0 0 0 0 0 0 56 0 4
Nghost:        5147.12 ave        5331 max        4346 min
Histogram: 4 0 0 4 0 0 0 16 4 36
Neighs:         0.00000 ave           0 max           0 min
Histogram: 64 0 0 0 0 0 0 0 0 0
FullNghs:      315025.0 ave      337008 max      250623 min
Histogram: 4 0 0 0 0 2 2 37 15 4

Total # of neighbors = 20161600
Ave neighs/atom = 166.90066
Neighbor list builds = 0
Dangerous builds = 0
variable oshikko equal pxx
variable p0 equal ${oshikko}
variable p0 equal 0.000123218905660116
variable unko equal lx
variable lx0 equal ${unko}
variable lx0 equal 436.864572

variable current_time equal time

variable boxlen equal lx
variable boxwidth equal ly
variable pressure equal pxx
variable epsilon equal ln(lx/${lx0})
variable epsilon equal ln(lx/436.864572)
variable sigma equal abs(pxx-${p0})
variable sigma equal abs(pxx-0.000123218905660116)

# initial Settings end here #

#fix strain all deform 1000 x trate 0.0001
#fix strain1 all deform 1 x scale 1.0001
#run 1
#minimize 1.0e-30 1.0e-30 100000 100000
#unfix strain1
#fix strain2 all deform 1 x scale 1.0001
#run 1
#minimize 1.0e-30 1.0e-30 100000 100000
#unfix strain2
#fix strain1 all deform 1 x scale 1.0001
#run 1
#minimize 1.0e-30 1.0e-30 100000 100000
#quit


label		deformationLoop
#variable	i loop 25
if "$j == 1" then "jump SELF initialmm"

label deform
variable 	expRate equal 1+0.0001*$j
variable 	expRate equal 1+0.0001*2
fix strain 	all deform 1 x scale ${expRate}
fix strain 	all deform 1 x scale 1.0002
run 		1
Per MPI rank memory allocation (min/avg/max) = 1.901 | 2.023 | 2.050 Mbytes
Time Step Lx Pxx Pxy Pxz Ly Lz Pyy Pzz Pyz TotEng Temp Volume 
           0        2    436.86457 0.00012321891 -2.6191617e-10 2.7595988e-10     57.10648     57.10648   -931.85631   -931.85631 2.2007569e-13    -497263.4            0    1424680.9 
       0.001        3    436.95194 0.0001231882 -2.6113913e-10 2.7656001e-10     57.10648     57.10648   -931.66997   -931.66997 4.2780017e-13    -497263.4 2.6385623e-16    1424965.9 
Loop time of 0.0617032 on 64 procs for 1 steps with 120800 atoms

Performance: 1.400 ns/day, 17.140 hours/ns, 16.207 timesteps/s
84.6% CPU use with 64 MPI tasks x 1 OpenMP threads

MPI task timing breakdown:
Section |  min time  |  avg time  |  max time  |%varavg| %total
---------------------------------------------------------------
Pair    | 0.028965   | 0.034931   | 0.040097   |   1.9 | 56.61
Neigh   | 0          | 0          | 0          |   0.0 |  0.00
Comm    | 0.011936   | 0.013679   | 0.014864   |   0.5 | 22.17
Output  | 0.0035243  | 0.0061554  | 0.011264   |   3.2 |  9.98
Modify  | 0.0015762  | 0.0033918  | 0.0049342  |   1.5 |  5.50
Other   |            | 0.003546   |            |       |  5.75

Nlocal:        1887.50 ave        2005 max        1592 min
Histogram: 4 0 0 0 0 0 0 56 0 4
Nghost:        5147.12 ave        5329 max        4346 min
Histogram: 4 0 0 4 0 0 0 16 4 36
Neighs:         0.00000 ave           0 max           0 min
Histogram: 64 0 0 0 0 0 0 0 0 0
FullNghs:      315025.0 ave      336840 max      250910 min
Histogram: 4 0 0 0 0 2 2 35 17 4

Total # of neighbors = 20161600
Ave neighs/atom = 166.90066
Neighbor list builds = 0
Dangerous builds = 0
print 		"${boxlen} ${boxwidth} ${pressure} ${sigma} ${epsilon} ${current_time} $t" append sstest.txt
436.9519449144 57.10648 0.000123188196054191 3.07096059251383e-08 0.000199980002666245 0.001 2.63856231077227e-16
print 		"run 1 end"
run 1 end
minimize 	1.0e-30 1.0e-30 100000 100000
WARNING: Using 'neigh_modify every 1 delay 0 check yes' setting during minimization (../min.cpp:188)
Per MPI rank memory allocation (min/avg/max) = 2.333 | 2.508 | 2.547 Mbytes
Time Step Lx Pxx Pxy Pxz Ly Lz Pyy Pzz Pyz TotEng Temp Volume 
       0.001        3    436.95194   -478.25087 -2.609671e-10 2.7709591e-10     57.10648     57.10648   -1217.0092   -1217.0092 1.4312229e-13   -497263.36 2.6385623e-16    1424965.9 
       0.002        4    436.95194   -473.41137 -2.4831387e-10 2.7722588e-10     57.10648     57.10648   -1213.4841   -1213.4841 3.2637007e-13   -497263.36 2.6385623e-16    1424965.9 
       0.003        5    436.95194   -468.50368 -2.195785e-10 2.9373683e-10     57.10648     57.10648   -1210.7154   -1210.7154 4.2460147e-12   -497263.36 2.6385623e-16    1424965.9 
       0.004        6    436.95194   -463.65998 -1.8062935e-10 4.5479978e-10     57.10648     57.10648   -1207.7565   -1207.7565 5.7604894e-11   -497263.36 2.6385623e-16    1424965.9 
       0.005        7    436.95194   -458.87183 -1.1182044e-10 2.3934852e-09     57.10648     57.10648   -1204.9459   -1204.9459 7.1752777e-10   -497263.36 2.6385623e-16    1424965.9 
       0.006        8    436.95194   -454.13748 2.9840765e-12 2.3320635e-08     57.10648     57.10648    -1202.111    -1202.111 8.0304345e-09   -497263.36 2.6385623e-16    1424965.9 
       0.007        9    436.95194   -449.46455 -9.6273856e-10 2.2834032e-07     57.10648     57.10648   -1199.3217   -1199.3217 8.1538956e-08   -497263.36 2.6385623e-16    1424965.9 
       0.008       10    436.95194   -444.89438 -2.397979e-08 1.9814465e-06     57.10648     57.10648   -1196.6228   -1196.6228 7.2577201e-07   -497263.36 2.6385623e-16    1424965.9 
       0.009       11    436.95194   -440.82889 -2.0566532e-07 9.9175098e-06     57.10648     57.10648   -1194.1778   -1194.1779 3.725422e-06   -497263.36 2.6385623e-16    1424965.9 
        0.01       12    436.95194   -437.33845 -2.9092728e-07 7.7328937e-06     57.10648     57.10648   -1192.0998   -1192.0998 3.0366723e-06   -497263.36 2.6385623e-16    1424965.9 
       0.011       13    436.95194   -433.05084 -1.7520136e-07 1.536947e-06     57.10648     57.10648   -1189.5726   -1189.5726 7.0749851e-07   -497263.36 2.6385623e-16    1424965.9 
       0.012       14    436.95194    -428.4037 -1.961783e-07 6.9201824e-07     57.10648     57.10648   -1186.7714   -1186.7714 3.426626e-07   -497263.36 2.6385623e-16    1424965.9 
       0.013       15    436.95194   -423.96723 -5.2475417e-07 1.6980548e-06     57.10648     57.10648   -1184.1564   -1184.1564 5.188913e-07   -497263.36 2.6385623e-16    1424965.9 
       0.014       16    436.95194   -420.39743 -7.8552849e-07 2.515417e-06     57.10648     57.10648   -1182.0267   -1182.0267 7.7115947e-07   -497263.36 2.6385623e-16    1424965.9 
       0.015       17    436.95194   -416.40277 -2.079001e-07 5.7981754e-07     57.10648     57.10648   -1179.6278   -1179.6278  4.06547e-07   -497263.36 2.6385623e-16    1424965.9 
       0.016       18    436.95194   -411.80026 1.5738111e-08 1.456792e-07     57.10648     57.10648   -1176.9118   -1176.9118 3.1407037e-07   -497263.36 2.6385623e-16    1424965.9 
       0.017       19    436.95194   -407.45119 5.2569634e-07 1.3713973e-07     57.10648     57.10648   -1174.3067   -1174.3068 2.5228225e-07   -497263.37 2.6385623e-16    1424965.9 
       0.018       20    436.95194   -403.89738 5.9785787e-07 -7.3412105e-08     57.10648     57.10648   -1172.1878   -1172.1878 -4.9069347e-08   -497263.37 2.6385623e-16    1424965.9 
       0.019       21    436.95194   -399.77452 -5.2486161e-08 -1.7976058e-07     57.10648     57.10648    -1169.747    -1169.747 -7.1700779e-08   -497263.37 2.6385623e-16    1424965.9 
        0.02       22    436.95194   -395.22956 2.613858e-08 -7.2542146e-08     57.10648     57.10648    -1167.029    -1167.029 -1.9722811e-07   -497263.37 2.6385623e-16    1424965.9 
       0.021       23    436.95194   -391.15079  9.87407e-07 3.4153789e-07     57.10648     57.10648   -1164.6012   -1164.6012 -9.36622e-07   -497263.37 2.6385623e-16    1424965.9 
       0.022       24    436.95194   -387.53366 8.0626366e-07 1.6140855e-07     57.10648     57.10648   -1162.4539   -1162.4539 -8.9680629e-07   -497263.37 2.6385623e-16    1424965.9 
       0.023       25    436.95194   -383.23089 4.7892273e-08 -1.8587806e-07     57.10648     57.10648    -1159.887   -1159.8871 -4.2831013e-07   -497263.37 2.6385623e-16    1424965.9 
       0.024       26    436.95194   -378.80927 -2.9838192e-07 -2.9996505e-07     57.10648     57.10648   -1157.2503   -1157.2503 -5.5447022e-07   -497263.37 2.6385623e-16    1424965.9 
       0.025       27    436.95194   -374.96841 -7.2995373e-07 -3.4861917e-07     57.10648     57.10648   -1154.9709   -1154.9709 -8.7723808e-07   -497263.37 2.6385623e-16    1424965.9 
       0.026       28    436.95194   -371.14693 -5.3196318e-07 -3.0332995e-07     57.10648     57.10648   -1152.6936   -1152.6936 -3.7626463e-07   -497263.37 2.6385623e-16    1424965.9 
       0.027       29    436.95194   -366.77812 -3.5169587e-07 -3.3199938e-07     57.10648     57.10648   -1150.0829   -1150.0829 -1.0528814e-08   -497263.37 2.6385623e-16    1424965.9 
       0.028       30    436.95194   -362.55684 -2.6517309e-07 -3.4416006e-07     57.10648     57.10648   -1147.5817   -1147.5817 4.3247011e-07   -497263.37 2.6385623e-16    1424965.9 
       0.029       31    436.95194   -358.86289 -6.4926984e-08 -1.8856569e-08     57.10648     57.10648   -1145.3781   -1145.3781 2.7885107e-07   -497263.37 2.6385623e-16    1424965.9 
        0.03       32    436.95194   -354.78727 -3.5084504e-08 1.2376384e-07     57.10648     57.10648   -1142.9412   -1142.9412 -5.4222455e-07   -497263.37 2.6385623e-16    1424965.9 
       0.031       33    436.95194   -350.45405 -3.7011522e-08 2.4743386e-07     57.10648     57.10648   -1140.3751   -1140.3751 -1.3112586e-06   -497263.37 2.6385623e-16    1424965.9 
       0.032       34    436.95194   -346.52281 3.4972028e-08 7.4299814e-07     57.10648     57.10648   -1138.0282   -1138.0282 -1.6339439e-06   -497263.37 2.6385623e-16    1424965.9 
       0.033       35    436.95194   -342.65309 4.9193716e-08 7.8802917e-07     57.10648     57.10648   -1135.7161   -1135.7161 -4.7634783e-07   -497263.37 2.6385623e-16    1424965.9 
       0.034       36    436.95194   -338.46067 2.8233888e-08 5.161666e-07     57.10648     57.10648   -1133.2316   -1133.2316 -9.7387407e-08   -497263.37 2.6385623e-16    1424965.9 
       0.035       37    436.95194   -334.42561 -3.7828655e-09 3.6829765e-07     57.10648     57.10648   -1130.8251   -1130.8251 1.5375517e-08   -497263.37 2.6385623e-16    1424965.9 
       0.036       38    436.95194   -330.42505 -1.4233838e-07 3.8482318e-07     57.10648     57.10648   -1128.4345   -1128.4345 3.6272982e-07   -497263.37 2.6385623e-16    1424965.9 
       0.037       39    436.95194   -326.34547 -4.1822379e-07 1.6374115e-07     57.10648     57.10648   -1126.0155   -1126.0155 2.1452815e-07   -497263.37 2.6385623e-16    1424965.9 
       0.038       40    436.95194   -322.45225 -5.3463195e-07 -4.1670265e-07     57.10648     57.10648   -1123.6965   -1123.6965 -2.0225679e-07   -497263.37 2.6385623e-16    1424965.9 
       0.039       41    436.95194     -318.339 -3.187547e-07 -4.1518492e-07     57.10648     57.10648    -1121.237    -1121.237 1.6681234e-08   -497263.37 2.6385623e-16    1424965.9 
        0.04       42    436.95194   -314.13059 -3.0662577e-07 -1.1365325e-07     57.10648     57.10648   -1118.7412   -1118.7412 4.3784749e-07   -497263.37 2.6385623e-16    1424965.9 
       0.041       43    436.95194   -310.32874 -4.6351186e-07 -1.4983961e-07     57.10648     57.10648   -1116.4769   -1116.4769 5.106259e-07   -497263.37 2.6385623e-16    1424965.9 
       0.042       44    436.95194   -306.31313 -3.7162165e-07 -4.2571442e-07     57.10648     57.10648   -1114.0764   -1114.0764 6.4417876e-08   -497263.37 2.6385623e-16    1424965.9 
       0.043       45    436.95194   -302.03272 -3.6572167e-07 -3.1610142e-07     57.10648     57.10648   -1111.5357   -1111.5357 -4.9372251e-07   -497263.37 2.6385623e-16    1424965.9 
       0.044       46    436.95194   -298.08975 -2.8467119e-07 1.7332199e-07     57.10648     57.10648    -1109.188    -1109.188 -1.1214771e-06   -497263.37 2.6385623e-16    1424965.9 
       0.045       47    436.95194   -294.17344 7.3790534e-09 1.1907866e-07     57.10648     57.10648   -1106.8485   -1106.8485 -7.1098757e-07   -497263.38 2.6385623e-16    1424965.9 
       0.046       48    436.95194    -290.0391 1.108951e-08 -3.2666644e-07     57.10648     57.10648   -1104.3915   -1104.3915 -3.8952076e-07   -497263.38 2.6385623e-16    1424965.9 
       0.047       49    436.95194   -286.04364 -1.6734535e-07 -5.3197303e-07     57.10648     57.10648   -1102.0152   -1102.0152 -2.2009694e-07   -497263.38 2.6385623e-16    1424965.9 
       0.048       50    436.95194   -281.98466 -1.1244161e-07 -2.7834265e-07     57.10648     57.10648   -1099.5908   -1099.5908 2.691462e-07   -497263.38 2.6385623e-16    1424965.9 
       0.049       51    436.95194   -277.93517 -7.6025067e-08 -1.501329e-07     57.10648     57.10648   -1097.1824   -1097.1824 5.9148206e-07   -497263.38 2.6385623e-16    1424965.9 
        0.05       52    436.95194   -274.05327 -3.3213707e-07 -3.7099222e-07     57.10648     57.10648   -1094.8749   -1094.8749 6.0264648e-09   -497263.38 2.6385623e-16    1424965.9 
       0.051       53    436.95194   -269.92016 -2.8268502e-07 -3.2068049e-07     57.10648     57.10648   -1092.4074   -1092.4074 -7.0978568e-07   -497263.38 2.6385623e-16    1424965.9 
       0.052       54    436.95194   -265.78851 -3.212047e-08 6.1863776e-08     57.10648     57.10648   -1089.9481   -1089.9481 -1.2727107e-06   -497263.38 2.6385623e-16    1424965.9 
       0.053       55    436.95194    -261.9419 -1.5282797e-07 1.2412403e-07     57.10648     57.10648   -1087.6619   -1087.6619 -1.0500479e-06   -497263.38 2.6385623e-16    1424965.9 
       0.054       56    436.95194   -257.88107 -2.5322933e-07 -1.0369988e-07     57.10648     57.10648   -1085.2397   -1085.2397 -3.2792961e-07   -497263.38 2.6385623e-16    1424965.9 
       0.055       57    436.95194   -253.72029 4.7692036e-08 2.1590865e-07     57.10648     57.10648   -1082.7602   -1082.7602 1.9648744e-07   -497263.38 2.6385623e-16    1424965.9 
       0.056       58    436.95194   -249.75761 6.3249814e-08 7.3794528e-07     57.10648     57.10648   -1080.4058   -1080.4058 7.2796435e-07   -497263.38 2.6385623e-16    1424965.9 
       0.057       59    436.95194   -245.75297 -3.2783497e-07 6.0660246e-07     57.10648     57.10648   -1078.0185   -1078.0185 5.9462174e-07   -497263.38 2.6385623e-16    1424965.9 
       0.058       60    436.95194   -241.71141 -2.97987e-07 4.0672213e-07     57.10648     57.10648    -1075.608    -1075.608 8.7877626e-08   -497263.38 2.6385623e-16    1424965.9 
       0.059       61    436.95194   -237.70309 -2.6131822e-07 3.844192e-07     57.10648     57.10648   -1073.2264   -1073.2265 7.2788163e-08   -497263.38 2.6385623e-16    1424965.9 
        0.06       62    436.95194   -233.60622 -5.3292966e-07 3.6506902e-07     57.10648     57.10648   -1070.7861   -1070.7861 5.8123625e-07   -497263.38 2.6385623e-16    1424965.9 
       0.061       63    436.95194   -229.61205 -4.9705329e-07 2.5862585e-07     57.10648     57.10648   -1068.4027   -1068.4027 9.6985787e-07   -497263.38 2.6385623e-16    1424965.9 
[...]
       0.151      153      437.083    2.1852313 -1.791184e-06 -4.4505491e-07     57.10648     57.10648   -930.08855   -930.08855 -4.1110982e-11    -497263.4 2.6385623e-16    1425393.3 
       0.152      154      437.083    2.1598339 -2.1005406e-06 -2.9758907e-07     57.10648     57.10648   -930.10366   -930.10366 -7.9856952e-11    -497263.4 2.6385623e-16    1425393.3 
       0.153      155      437.083    2.1257804 -2.4430775e-06 -9.2701207e-09     57.10648     57.10648   -930.12395   -930.12395 -1.6087073e-11    -497263.4 2.6385623e-16    1425393.3 
       0.154      156      437.083    2.0980397 -2.631651e-06 1.7459256e-07     57.10648     57.10648   -930.14052   -930.14052 -1.9339805e-11    -497263.4 2.6385623e-16    1425393.3 
       0.155      157      437.083     2.049647 -2.8486035e-06 3.1671286e-07     57.10648     57.10648   -930.16934   -930.16934 -6.953731e-11    -497263.4 2.6385623e-16    1425393.3 
       0.156      158      437.083    2.0198594 -2.9323485e-06 2.408636e-07     57.10648     57.10648   -930.18706   -930.18706 -8.0620823e-11    -497263.4 2.6385623e-16    1425393.3 
       0.157      159      437.083    1.9670563 -3.0670516e-06 -1.4813093e-07     57.10648     57.10648   -930.21857   -930.21857 -1.8748692e-10    -497263.4 2.6385623e-16    1425393.3 
       0.158      160      437.083    1.9278721 -3.2671922e-06 -3.9403043e-07     57.10648     57.10648   -930.24189   -930.24189 -1.2004218e-10    -497263.4 2.6385623e-16    1425393.3 
       0.159      161      437.083      1.87029 -3.8001385e-06 -4.6715722e-07     57.10648     57.10648   -930.27614   -930.27614 -2.425888e-10    -497263.4 2.6385623e-16    1425393.3 
        0.16      162      437.083    1.8197895 -4.3052488e-06 -3.3194484e-07     57.10648     57.10648   -930.30627   -930.30627 -1.0033946e-10    -497263.4 2.6385623e-16    1425393.3 
       0.161      163      437.083    1.7687111 -4.7054139e-06 3.7104847e-08     57.10648     57.10648   -930.33675   -930.33675 -2.523738e-10    -497263.4 2.6385623e-16    1425393.3 
       0.162      164      437.083    1.7019448 -5.0823661e-06 4.7259405e-07     57.10648     57.10648   -930.37652   -930.37652 -8.1677325e-11    -497263.4 2.6385623e-16    1425393.3 
       0.163      165      437.083    1.6496101 -5.1670922e-06 4.6532646e-07     57.10648     57.10648   -930.40773   -930.40773 -1.6223654e-10    -497263.4 2.6385623e-16    1425393.3 
       0.164      166      437.083    1.5797286 -5.1087051e-06 1.2176474e-07     57.10648     57.10648   -930.44936   -930.44936 -6.7884139e-11    -497263.4 2.6385623e-16    1425393.3 
       0.165      167      437.083    1.5325033 -4.9585987e-06 -3.3778404e-07     57.10648     57.10648   -930.47743   -930.47743 -8.369384e-11    -497263.4 2.6385623e-16    1425393.3 
       0.166      168      437.083     1.451896 -4.6515555e-06 -1.2944216e-06     57.10648     57.10648   -930.52545   -930.52545 -8.4153331e-11    -497263.4 2.6385623e-16    1425393.3 
       0.167      169      437.083    1.4044809 -4.5419072e-06 -1.8110969e-06     57.10648     57.10648   -930.55375   -930.55375 -8.5646415e-11    -497263.4 2.6385623e-16    1425393.3 
       0.168      170      437.083    1.3298749 -4.5287998e-06 -2.3629216e-06     57.10648     57.10648   -930.59822   -930.59822 -1.5793605e-10    -497263.4 2.6385623e-16    1425393.3 
       0.169      171      437.083    1.2840142 -4.5517342e-06 -2.4678702e-06     57.10648     57.10648   -930.62555   -930.62555 -1.6306164e-10    -497263.4 2.6385623e-16    1425393.3 
        0.17      172      437.083     1.211792 -4.5166362e-06 -2.4232782e-06     57.10648     57.10648   -930.66861   -930.66861 -2.283792e-10    -497263.4 2.6385623e-16    1425393.3 
       0.171      173      437.083    1.1624825 -4.3536087e-06 -2.6046945e-06     57.10648     57.10648   -930.69795   -930.69795 -1.4158414e-10    -497263.4 2.6385623e-16    1425393.3 
       0.172      174      437.083     1.105422 -3.95879e-06 -3.2296837e-06     57.10648     57.10648   -930.73192   -930.73192 -1.6859017e-10    -497263.4 2.6385623e-16    1425393.3 
       0.173      175      437.083    1.0593678 -3.6052321e-06 -3.7813459e-06     57.10648     57.10648    -930.7594    -930.7594 -6.8029516e-11    -497263.4 2.6385623e-16    1425393.3 
       0.174      176      437.083    1.0024861 -3.2061323e-06 -4.3160862e-06     57.10648     57.10648   -930.79329   -930.79329 -2.7072937e-11    -497263.4 2.6385623e-16    1425393.3 
       0.175      177      437.083   0.96014194 -2.9277061e-06 -4.6375737e-06     57.10648     57.10648   -930.81849   -930.81849 6.9633538e-12    -497263.4 2.6385623e-16    1425393.3 
       0.176      178      437.083   0.91273446 -2.6497886e-06 -4.8727127e-06     57.10648     57.10648   -930.84676   -930.84676 2.1544911e-11    -497263.4 2.6385623e-16    1425393.3 
       0.177      179      437.083   0.87523202 -2.5187284e-06 -4.8183618e-06     57.10648     57.10648   -930.86912   -930.86912 2.3134953e-11    -497263.4 2.6385623e-16    1425393.3 
       0.178      180      437.083   0.82925385 -2.471289e-06 -4.4828552e-06     57.10648     57.10648   -930.89651   -930.89651 -3.4154395e-13    -497263.4 2.6385623e-16    1425393.3 
       0.179      181      437.083   0.79651578 -2.4508458e-06 -4.1907137e-06     57.10648     57.10648   -930.91604   -930.91604 -1.1836844e-11    -497263.4 2.6385623e-16    1425393.3 
        0.18      182      437.083   0.75729202 -2.3170763e-06 -3.9499991e-06     57.10648     57.10648   -930.93942   -930.93942 -3.1741914e-12    -497263.4 2.6385623e-16    1425393.3 
       0.181      183      437.083   0.72950807 -2.0812667e-06 -3.9233709e-06     57.10648     57.10648   -930.95592   -930.95592 2.4432523e-11    -497263.4 2.6385623e-16    1425393.3 
       0.182      184      437.083   0.69420202 -1.7161844e-06 -3.9676867e-06     57.10648     57.10648   -930.97694   -930.97694 4.8907289e-11    -497263.4 2.6385623e-16    1425393.3 
       0.183      185      437.083    0.6669853 -1.531785e-06 -3.9021235e-06     57.10648     57.10648   -930.99318   -930.99318 6.5256843e-11    -497263.4 2.6385623e-16    1425393.3 
       0.184      186      437.083   0.63983905 -1.425726e-06 -3.6816727e-06     57.10648     57.10648   -931.00937   -931.00937 4.2359611e-11    -497263.4 2.6385623e-16    1425393.3 
       0.185      187      437.083   0.61420722 -1.3030639e-06 -3.3498919e-06     57.10648     57.10648   -931.02466   -931.02466 6.795089e-11    -497263.4 2.6385623e-16    1425393.3 
       0.186      188      437.083   0.59026836 -1.1707157e-06 -3.0291505e-06     57.10648     57.10648   -931.03895   -931.03895 5.463961e-11    -497263.4 2.6385623e-16    1425393.3 
       0.187      189      437.083   0.56661311 -1.1021563e-06 -2.7565581e-06     57.10648     57.10648   -931.05302   -931.05302 6.4660715e-11    -497263.4 2.6385623e-16    1425393.3 
       0.188      190      437.083   0.54717915 -1.1076454e-06 -2.5542164e-06     57.10648     57.10648   -931.06457   -931.06457 3.0258254e-11    -497263.4 2.6385623e-16    1425393.3 
       0.189      191      437.083   0.52635024 -1.1000686e-06 -2.3814926e-06     57.10648     57.10648   -931.07698   -931.07698 3.3382625e-11    -497263.4 2.6385623e-16    1425393.3 
        0.19      192      437.083   0.50815454 -1.0048541e-06 -2.3283572e-06     57.10648     57.10648   -931.08782   -931.08782 1.4916769e-11    -497263.4 2.6385623e-16    1425393.3 
       0.191      193      437.083   0.48796114 -8.2254553e-07 -2.4307004e-06     57.10648     57.10648   -931.09986   -931.09986 2.8670378e-12    -497263.4 2.6385623e-16    1425393.3 
       0.192      194      437.083   0.47308542 -7.5352326e-07 -2.5318458e-06     57.10648     57.10648   -931.10875   -931.10875 -4.2407971e-13    -497263.4 2.6385623e-16    1425393.3 
       0.193      195      437.083   0.45485122 -7.5842405e-07 -2.5884668e-06     57.10648     57.10648   -931.11963   -931.11963 -4.5138337e-13    -497263.4 2.6385623e-16    1425393.3 
       0.194      196      437.083   0.44052759 -7.0629159e-07 -2.581082e-06     57.10648     57.10648   -931.12813   -931.12813 -3.2118052e-12    -497263.4 2.6385623e-16    1425393.3 
       0.195      197      437.083   0.42387646 -5.5566936e-07 -2.619246e-06     57.10648     57.10648   -931.13804   -931.13804 -2.7936765e-12    -497263.4 2.6385623e-16    1425393.3 
       0.196      198      437.083   0.41150566 -4.3738125e-07 -2.7603809e-06     57.10648     57.10648   -931.14542   -931.14542 -3.9965135e-13    -497263.4 2.6385623e-16    1425393.3 
       0.197      199      437.083   0.39647435 -3.2874607e-07 -2.9693148e-06     57.10648     57.10648   -931.15436   -931.15436 3.445951e-12    -497263.4 2.6385623e-16    1425393.3 
       0.198      200      437.083   0.38327349 -2.5739596e-07 -3.0413155e-06     57.10648     57.10648   -931.16223   -931.16223 3.1001273e-12    -497263.4 2.6385623e-16    1425393.3 
       0.199      201      437.083   0.36957882 -2.0309874e-07 -3.0387833e-06     57.10648     57.10648   -931.17042   -931.17042 -2.0250844e-12    -497263.4 2.6385623e-16    1425393.3 
         0.2      202      437.083   0.35658426 -2.0014552e-07 -3.0495837e-06     57.10648     57.10648   -931.17816   -931.17816 -1.1740681e-11    -497263.4 2.6385623e-16    1425393.3 
       0.201      203      437.083   0.34504284 -2.5528669e-07 -3.0509785e-06     57.10648     57.10648   -931.18504   -931.18504 -8.6809513e-12    -497263.4 2.6385623e-16    1425393.3 
       0.202      204      437.083    0.3310542 -4.0331023e-07 -2.9510184e-06     57.10648     57.10648   -931.19337   -931.19337 -1.4795292e-11    -497263.4 2.6385623e-16    1425393.3 
       0.203      205      437.083   0.32029088 -5.3104049e-07 -2.8101124e-06     57.10648     57.10648   -931.19976   -931.19976 -1.0111676e-11    -497263.4 2.6385623e-16    1425393.3 
       0.204      206      437.083    0.3074849 -6.4199225e-07 -2.6577048e-06     57.10648     57.10648   -931.20738   -931.20738 -7.9226771e-12    -497263.4 2.6385623e-16    1425393.3 
       0.205      207      437.083   0.29679941 -6.7946703e-07 -2.6126223e-06     57.10648     57.10648   -931.21377   -931.21377 -7.4823259e-12    -497263.4 2.6385623e-16    1425393.3 
       0.206      208      437.083   0.28373157 -7.037709e-07 -2.571163e-06     57.10648     57.10648   -931.22157   -931.22157 -1.0990442e-11    -497263.4 2.6385623e-16    1425393.3 
       0.207      209      437.083   0.27282959 -7.5573779e-07 -2.4251259e-06     57.10648     57.10648   -931.22806   -931.22806 -1.453643e-11    -497263.4 2.6385623e-16    1425393.3 
       0.208      210      437.083   0.26095434 -8.3115747e-07 -2.1727745e-06     57.10648     57.10648   -931.23515   -931.23515 -8.6895134e-12    -497263.4 2.6385623e-16    1425393.3 
       0.209      211      437.083   0.25003189 -8.8169688e-07 -1.9555477e-06     57.10648     57.10648   -931.24165   -931.24165 -1.6943992e-11    -497263.4 2.6385623e-16    1425393.3 
        0.21      212      437.083   0.23839737 -9.3329028e-07 -1.7521157e-06     57.10648     57.10648   -931.24856   -931.24856 -7.478649e-12    -497263.4 2.6385623e-16    1425393.3 
       0.211      213      437.083    0.2267858 -9.9685603e-07 -1.578489e-06     57.10648     57.10648   -931.25547   -931.25547 -1.4168808e-11    -497263.4 2.6385623e-16    1425393.3 
       0.212      214      437.083   0.21632826 -1.0429714e-06 -1.4733089e-06     57.10648     57.10648   -931.26171   -931.26171 -7.8702248e-12    -497263.4 2.6385623e-16    1425393.3 
       0.213      215      437.083   0.20429313 -1.0758084e-06 -1.4225172e-06     57.10648     57.10648   -931.26889   -931.26889 -4.3430563e-12    -497263.4 2.6385623e-16    1425393.3 
       0.214      216      437.083   0.19360391 -1.1044481e-06 -1.3796098e-06     57.10648     57.10648   -931.27528   -931.27528 -3.1386631e-12    -497263.4 2.6385623e-16    1425393.3 
       0.215      217      437.083   0.18173093 -1.1238595e-06 -1.316762e-06     57.10648     57.10648   -931.28237   -931.28237 -3.6658345e-12    -497263.4 2.6385623e-16    1425393.3 
       0.216      218      437.083    0.1721235 -1.1218867e-06 -1.2690384e-06     57.10648     57.10648   -931.28808   -931.28808 -4.4166236e-12    -497263.4 2.6385623e-16    1425393.3 
       0.217      219      437.083   0.16122268 -1.1358225e-06 -1.1992292e-06     57.10648     57.10648   -931.29455   -931.29455 -3.1204709e-12    -497263.4 2.6385623e-16    1425393.3 
       0.218      220      437.083   0.15131663 -1.1625185e-06 -1.1017856e-06     57.10648     57.10648   -931.30046   -931.30046 -3.9918268e-12    -497263.4 2.6385623e-16    1425393.3 
       0.219      221      437.083   0.14108732 -1.1363788e-06 -1.0193993e-06     57.10648     57.10648   -931.30654   -931.30654 -3.403435e-12    -497263.4 2.6385623e-16    1425393.3 
        0.22      222      437.083   0.13146666 -1.0325378e-06 -1.020389e-06     57.10648     57.10648   -931.31228   -931.31228 -2.6525016e-12    -497263.4 2.6385623e-16    1425393.3 
       0.221      223      437.083   0.12228694 -9.5130627e-07 -1.0519511e-06     57.10648     57.10648   -931.31777   -931.31777 -4.675706e-12    -497263.4 2.6385623e-16    1425393.3 
       0.222      224      437.083    0.1120303 -9.1345943e-07 -1.0467465e-06     57.10648     57.10648    -931.3239    -931.3239 -5.8599671e-12    -497263.4 2.6385623e-16    1425393.3 
       0.223      225      437.083   0.10423974 -8.7123859e-07 -9.7843565e-07     57.10648     57.10648   -931.32855   -931.32855 -4.9084899e-12    -497263.4 2.6385623e-16    1425393.3 
       0.224      226      437.083  0.096037076 -8.2179406e-07 -8.6534609e-07     57.10648     57.10648   -931.33344   -931.33344 -3.9505676e-12    -497263.4 2.6385623e-16    1425393.3 
       0.225      227      437.083  0.088562037 -8.2556566e-07 -7.8474057e-07     57.10648     57.10648   -931.33788   -931.33788 -4.1820682e-12    -497263.4 2.6385623e-16    1425393.3 
       0.226      228      437.083  0.081671437 -8.4046829e-07 -7.5144367e-07     57.10648     57.10648   -931.34196   -931.34196 -4.6510618e-12    -497263.4 2.6385623e-16    1425393.3 
       0.227      229      437.083  0.074718466 -8.086723e-07 -7.3294069e-07     57.10648     57.10648    -931.3461    -931.3461 -5.2227166e-12    -497263.4 2.6385623e-16    1425393.3 
       0.228      230      437.083  0.068767862 -7.5139071e-07 -7.0903341e-07     57.10648     57.10648   -931.34965   -931.34965 -4.8706691e-12    -497263.4 2.6385623e-16    1425393.3 
       0.229      231      437.083  0.062047413 -6.8256766e-07 -7.1277265e-07     57.10648     57.10648   -931.35367   -931.35367 -3.9254021e-12    -497263.4 2.6385623e-16    1425393.3 
        0.23      232      437.083   0.05650684 -6.2313768e-07 -7.6429595e-07     57.10648     57.10648   -931.35699   -931.35699 -1.793605e-12    -497263.4 2.6385623e-16    1425393.3 
       0.231      233      437.083  0.050965587 -5.5746341e-07 -7.9578399e-07     57.10648     57.10648   -931.36031   -931.36031 -2.1598314e-12    -497263.4 2.6385623e-16    1425393.3 
       0.232      234      437.083  0.045986885 -5.1203785e-07 -7.3040361e-07     57.10648     57.10648   -931.36329   -931.36329 -2.5416539e-12    -497263.4 2.6385623e-16    1425393.3 
       0.233      235      437.083  0.041364001 -4.9637443e-07 -6.4141158e-07     57.10648     57.10648   -931.36607   -931.36607 -1.0223408e-12    -497263.4 2.6385623e-16    1425393.3 
       0.234      236      437.083  0.037071672 -5.0345122e-07 -6.0687553e-07     57.10648     57.10648   -931.36864   -931.36864 -1.8027393e-12    -497263.4 2.6385623e-16    1425393.3 
       0.235      237      437.083  0.033606911 -5.0334949e-07 -6.0557246e-07     57.10648     57.10648   -931.37072   -931.37072 -1.7683319e-12    -497263.4 2.6385623e-16    1425393.3 
       0.236      238      437.083  0.029403444 -4.768288e-07 -5.9040286e-07     57.10648     57.10648   -931.37327   -931.37327 -1.4693001e-12    -497263.4 2.6385623e-16    1425393.3 
       0.237      239      437.083  0.024371231 -4.171558e-07 -5.5719721e-07     57.10648     57.10648   -931.37635   -931.37635 -3.4294275e-12    -497263.4 2.6385623e-16    1425393.3 
       0.238      240      437.083  0.017671765 -3.083898e-07 -5.2631277e-07     57.10648     57.10648   -931.38045   -931.38045 -6.2239263e-12    -497263.4 2.6385623e-16    1425393.3 
       0.239      241      437.083 0.0088299121 -9.8945973e-08 -4.9023149e-07     57.10648     57.10648   -931.38583   -931.38583 -1.2024137e-11    -497263.4 2.6385623e-16    1425393.3 
        0.24      242      437.083 0.00040204315 1.9155286e-07 -4.0470946e-07     57.10648     57.10648   -931.39087   -931.39087 -1.2210692e-11    -497263.4 2.6385623e-16    1425393.3 
       0.241      243      437.083 -0.0056467485 4.6788495e-07 -2.5683539e-07     57.10648     57.10648   -931.39434   -931.39434 -7.2819265e-12    -497263.4 2.6385623e-16    1425393.3 
       0.242      244      437.083  -0.00698772 5.3758741e-07 -1.6013898e-07     57.10648     57.10648   -931.39499   -931.39499 -3.7638973e-12    -497263.4 2.6385623e-16    1425393.3 
       0.243      245      437.083 -0.0068339575 5.3058847e-07 -1.2403095e-07     57.10648     57.10648   -931.39482   -931.39482 -7.8617032e-13    -497263.4 2.6385623e-16    1425393.3 
       0.244      246      437.083 -0.0065850825 5.1679617e-07 -1.2313179e-07     57.10648     57.10648   -931.39463   -931.39463 -5.0729825e-13    -497263.4 2.6385623e-16    1425393.3 
       0.245      247      437.083 -0.0064621164 5.0600091e-07 -1.2769313e-07     57.10648     57.10648   -931.39454   -931.39454 -6.1507569e-13    -497263.4 2.6385623e-16    1425393.3 
       0.246      248      437.083 -0.0064188034 4.9760294e-07 -1.3020506e-07     57.10648     57.10648   -931.39451   -931.39451 -3.167085e-13    -497263.4 2.6385623e-16    1425393.3 
       0.247      249      437.083 -0.0064037243 4.9149299e-07 -1.3160892e-07     57.10648     57.10648    -931.3945    -931.3945 -8.3627131e-13    -497263.4 2.6385623e-16    1425393.3 
Loop time of 29.3629 on 64 procs for 246 steps with 120800 atoms

85.4% CPU use with 64 MPI tasks x 1 OpenMP threads

Minimization stats:
  Stopping criterion = energy tolerance
  Energy initial, next-to-last, final = 
      -497263.13547761  -497263.401315488  -497263.401315488
  Force two-norm initial, final = 0.14494996 2.0497980e-06
  Force max component initial, final = 0.0050010486 2.0321302e-08
  Final line search alpha, max atom move = 1.0000000 2.0321302e-08
  Iterations, force evaluations = 246 492

MPI task timing breakdown:
Section |  min time  |  avg time  |  max time  |%varavg| %total
---------------------------------------------------------------
Pair    | 13.721     | 16.725     | 18.466     |  33.1 | 56.96
Neigh   | 0          | 0          | 0          |   0.0 |  0.00
Comm    | 5.7091     | 6.4646     | 7.6745     |  11.8 | 22.02
Output  | 0.88859    | 0.89279    | 0.91744    |   0.4 |  3.04
Modify  | 0          | 0          | 0          |   0.0 |  0.00
Other   |            | 5.28       |            |       | 17.98

Nlocal:        1887.50 ave        2005 max        1592 min
Histogram: 4 0 0 0 0 0 0 56 0 4
Nghost:        5147.12 ave        5329 max        4346 min
Histogram: 4 0 0 4 0 0 0 16 4 36
Neighs:         0.00000 ave           0 max           0 min
Histogram: 64 0 0 0 0 0 0 0 0 0
FullNghs:      315025.0 ave      336840 max      250910 min
Histogram: 4 0 0 0 0 2 2 35 17 4

Total # of neighbors = 20161600
Ave neighs/atom = 166.90066
Neighbor list builds = 0
Dangerous builds = 0
print 		"${boxlen} ${boxwidth} ${pressure} ${sigma} ${epsilon} ${current_time} $t" append ssminimize.txt
437.083004286 57.10648 -0.00640372434965331 0.00652694325349661 0.000499875041650993 0.247 2.63856230633833e-16
print 		"minimize end"
minimize end
unfix strain
#if "$i == 25" then quit
clear
  using 1 OpenMP thread(s) per MPI task
package kokkos
next j
Increment via next: value 6 on partition 0
jump SELF initialSettings
quit
