LAMMPS (29 Sep 2021 - Update 1)
KOKKOS mode is enabled (../kokkos.cpp:97)
  will use up to 2 GPU(s) per node
  using 1 OpenMP thread(s) per MPI task
Reading data file ...
  orthogonal box = (0.0000000 0.0000000 0.0000000) to (436.86457 57.106480 57.106480)
  16 by 2 by 2 MPI processor grid
  reading atoms ...
  120800 atoms
  read_data CPU = 0.217 seconds
800 atoms in group source
800 atoms in group detector
0 atoms in group edge
0 atoms in group edge_buf
0 atoms in group buffer
WARNING: Using 'neigh_modify every 1 delay 0 check yes' setting during minimization (../min.cpp:188)
Neighbor list info ...
  update every 1 steps, delay 0 steps, check yes
  max neighbors/atom: 2000, page size: 100000
  master list distance cutoff = 7.6
  ghost atom cutoff = 7.6
  binsize = 7.6, bins = 58 8 8
  1 neighbor lists, perpetual/occasional/extra = 1 0 0
  (1) pair eam/alloy/kk, perpetual
      attributes: full, newton off, kokkos_device
      pair build: full/bin/kk/device
      stencil: full/bin/3d
      bin: kk/device
Setting up cg/kk style minimization ...
  Unit style    : metal
  Current step  : 0
WARNING: Fixes cannot yet send exchange data in Kokkos communication, switching to classic exchange/border communication (../comm_kokkos.cpp:581)
Per MPI rank memory allocation (min/avg/max) = 2.301 | 2.470 | 2.508 Mbytes
Time Step Lx Pxx Pxy Pxz Ly Lz Pyy Pzz Pyz TotEng Temp Volume 
           0        0    436.86457    118.80219 -5.4869106e-13 -5.0542593e-13     57.10648     57.10648    -812.7081    -812.7081 3.0525084e-13   -497261.36            0    1424680.9 
       0.001        1    436.86457     44.79424 -4.7556279e-13 -5.2448024e-13     57.10648     57.10648   -904.84846   -904.84846 -3.307269e-13   -497263.27            0    1424680.9 
       0.002        2    436.86457     23.52156 -2.6280449e-13 -7.9593073e-13     57.10648     57.10648   -922.24294   -922.24294 1.3174718e-14   -497263.32            0    1424680.9 
       0.003        3    436.86457    28.149253 -6.2777371e-13 -4.7777717e-13     57.10648     57.10648   -914.02867   -914.02867 -5.8025643e-13   -497263.39            0    1424680.9 
       0.004        4    436.86457    22.769747 1.6711651e-14 4.1214445e-14     57.10648     57.10648   -917.45532   -917.45532 -2.0235237e-12    -497263.4            0    1424680.9 
       0.005        5    436.86457    15.459859 -3.7734562e-13 -4.4454385e-13     57.10648     57.10648   -922.54335   -922.54335 -8.1574116e-13    -497263.4            0    1424680.9 
       0.006        6    436.86457    12.792724 -5.530705e-13 -7.7440158e-13     57.10648     57.10648   -924.29598   -924.29598 -8.81116e-13    -497263.4            0    1424680.9 
       0.007        7    436.86457    11.298523 -5.825809e-13 6.9909637e-13     57.10648     57.10648   -925.04899   -925.04899 -2.6656579e-12    -497263.4            0    1424680.9 
       0.008        8    436.86457    10.158465 1.2629061e-13 1.0677689e-12     57.10648     57.10648   -925.72096   -925.72096 -8.3066314e-13    -497263.4            0    1424680.9 
       0.009        9    436.86457    8.7822335 -2.2032468e-13 -6.9546449e-13     57.10648     57.10648   -926.61722   -926.61722 2.8996744e-13    -497263.4            0    1424680.9 
        0.01       10    436.86457    7.9756887 -4.1509292e-13 1.6440688e-12     57.10648     57.10648   -927.10962   -927.10962 -5.0087758e-13    -497263.4            0    1424680.9 
       0.011       11    436.86457    7.3895153 8.543454e-13 1.1838135e-13     57.10648     57.10648   -927.43503   -927.43503 5.3986216e-14    -497263.4            0    1424680.9 
       0.012       12    436.86457    6.8833877 1.8783701e-13 3.6710832e-13     57.10648     57.10648    -927.7324    -927.7324 2.2446194e-13    -497263.4            0    1424680.9 
       0.013       13    436.86457    6.3274472 -6.7732139e-14 -2.2616957e-13     57.10648     57.10648   -928.08443   -928.08443 -8.195386e-13    -497263.4            0    1424680.9 
       0.014       14    436.86457    5.9317412 6.6613758e-13 2.0175718e-13     57.10648     57.10648   -928.32489   -928.32489 -4.3208553e-15    -497263.4            0    1424680.9 
       0.015       15    436.86457    5.6267772 4.588898e-13 1.8493654e-13     57.10648     57.10648   -928.49523   -928.49523 -1.3477326e-13    -497263.4            0    1424680.9 
       0.016       16    436.86457    5.3396062 -9.2126158e-14 -2.8303957e-13     57.10648     57.10648   -928.66612   -928.66612 -7.0152378e-13    -497263.4            0    1424680.9 
       0.017       17    436.86457    5.0405437 -1.1346452e-12 4.9306867e-13     57.10648     57.10648   -928.85271   -928.85271 2.3374026e-14    -497263.4            0    1424680.9 
       0.018       18    436.86457    4.8076098 -9.5397219e-14 -1.4353866e-12     57.10648     57.10648   -928.99267   -928.99267 -1.3259433e-13    -497263.4            0    1424680.9 
       0.019       19    436.86457    4.6186846 1.1776849e-13 2.0519763e-13     57.10648     57.10648   -929.10002   -929.10002 -3.6688448e-13    -497263.4            0    1424680.9 
        0.02       20    436.86457     4.433151 -4.0348976e-13 -1.1800737e-13     57.10648     57.10648   -929.21062   -929.21062 1.311867e-13    -497263.4            0    1424680.9 
       0.021       21    436.86457    4.2464509 -7.5356641e-13 -9.9817253e-13     57.10648     57.10648   -929.32623   -929.32623 4.737663e-13    -497263.4            0    1424680.9 
       0.022       22    436.86457    4.0922427 -4.9614332e-14 1.2105825e-13     57.10648     57.10648   -929.41835   -929.41835 -5.6662076e-13    -497263.4            0    1424680.9 
       0.023       23    436.86457     3.963484 5.1922607e-12 -7.325167e-13     57.10648     57.10648   -929.49207   -929.49207 -7.6219447e-14    -497263.4            0    1424680.9 
       0.024       24    436.86457    3.8332485 5.2869824e-11 -1.6856184e-11     57.10648     57.10648   -929.57003   -929.57003 -1.2442846e-11    -497263.4            0    1424680.9 
       0.025       25    436.86457    3.7072448 3.7989881e-10 -1.0728681e-10     57.10648     57.10648   -929.64754   -929.64754 -1.64806e-10    -497263.4            0    1424680.9 
       0.026       26    436.86457    3.6108182 2.112733e-09 -5.6484245e-10     57.10648     57.10648   -929.70506   -929.70506 -1.3180484e-09    -497263.4            0    1424680.9 
       0.027       27    436.86457    3.5365146 1.539714e-09 -3.5647248e-10     57.10648     57.10648   -929.74822   -929.74822 -1.5235347e-09    -497263.4            0    1424680.9 
       0.028       28    436.86457    3.4546565 3.9299403e-10 -7.5280273e-12     57.10648     57.10648     -929.796     -929.796 -8.9049942e-10    -497263.4            0    1424680.9 
       0.029       29    436.86457    3.3574402 3.5605996e-10 2.2667153e-10     57.10648     57.10648   -929.85513   -929.85513 -1.5741808e-09    -497263.4            0    1424680.9 
        0.03       30    436.86457    3.2783393 8.7494876e-10 9.6708384e-10     57.10648     57.10648   -929.90326   -929.90326 -5.4266057e-09    -497263.4            0    1424680.9 
       0.031       31    436.86457    3.2171462 7.3717023e-10 1.1696682e-09     57.10648     57.10648    -929.9394    -929.9394 -6.1190126e-09    -497263.4            0    1424680.9 
       0.032       32    436.86457    3.1532558 1.2314171e-10 4.0277955e-10     57.10648     57.10648   -929.97644   -929.97644 -1.4167839e-09    -497263.4            0    1424680.9 
       0.033       33    436.86457    3.0832784 2.7708848e-10 6.462387e-10     57.10648     57.10648   -930.01813   -930.01813 -1.2183571e-09    -497263.4            0    1424680.9 
       0.034       34    436.86457    3.0187832 9.6929316e-10 1.6890872e-09     57.10648     57.10648   -930.05747   -930.05747 -3.1130193e-09    -497263.4            0    1424680.9 
       0.035       35    436.86457    2.9682426 6.3788662e-10 1.1422114e-09     57.10648     57.10648   -930.08795   -930.08795 -2.640384e-09    -497263.4            0    1424680.9 
       0.036       36    436.86457     2.911164 8.1881791e-11 2.6508004e-10     57.10648     57.10648   -930.12145   -930.12145 -1.1030499e-09    -497263.4            0    1424680.9 
       0.037       37    436.86457    2.8584525 1.8514934e-10   3.1691e-10     57.10648     57.10648   -930.15226   -930.15226 -1.5778322e-09    -497263.4            0    1424680.9 
       0.038       38    436.86457    2.8099608 6.448638e-10 6.8544999e-10     57.10648     57.10648   -930.18146   -930.18146 -3.1873631e-09    -497263.4            0    1424680.9 
       0.039       39    436.86457    2.7631863 2.9089112e-10 3.0776047e-10     57.10648     57.10648   -930.20991   -930.20991 -1.484263e-09    -497263.4            0    1424680.9 
        0.04       40    436.86457    2.7138679 9.9750225e-11 1.8572367e-10     57.10648     57.10648    -930.2394    -930.2394 -9.0944443e-10    -497263.4            0    1424680.9 
       0.041       41    436.86457     2.670946 9.8667786e-11 3.1481163e-10     57.10648     57.10648   -930.26446   -930.26446 -1.1151126e-09    -497263.4            0    1424680.9 
       0.042       42    436.86457    2.6351332 8.5343982e-11 2.3427464e-10     57.10648     57.10648   -930.28558   -930.28558 -7.9028776e-10    -497263.4            0    1424680.9 
       0.043       43    436.86457    2.5908495 4.0066622e-11  7.86487e-11     57.10648     57.10648   -930.31228   -930.31228 -3.0883778e-10    -497263.4            0    1424680.9 
       0.044       44    436.86457    2.5482483 6.7333053e-11 1.0371911e-10     57.10648     57.10648    -930.3381    -930.3381 -1.2119918e-10    -497263.4            0    1424680.9 
       0.045       45    436.86457     2.513203 1.2481345e-10 1.4652414e-10     57.10648     57.10648   -930.35886   -930.35886 8.764549e-11    -497263.4            0    1424680.9 
       0.046       46    436.86457    2.4798968 7.3207718e-11 3.1827968e-11     57.10648     57.10648   -930.37833   -930.37833 7.2773961e-12    -497263.4            0    1424680.9 
       0.047       47    436.86457    2.4430958 1.0574007e-10 2.6252211e-11     57.10648     57.10648   -930.40019   -930.40019 -1.1690224e-10    -497263.4            0    1424680.9 
       0.048       48    436.86457     2.407802 2.4277757e-10 1.1112832e-10     57.10648     57.10648   -930.42156   -930.42156 -2.9562603e-10    -497263.4            0    1424680.9 
       0.049       49    436.86457     2.377718 2.1732177e-10 9.2441208e-11     57.10648     57.10648   -930.43969   -930.43969 -2.7399943e-10    -497263.4            0    1424680.9 
        0.05       50    436.86457    2.3446312 1.4721008e-10 5.8544928e-11     57.10648     57.10648   -930.45922   -930.45922 -1.707849e-10    -497263.4            0    1424680.9 
       0.051       51    436.86457    2.3145662 1.9518746e-10  1.39892e-10     57.10648     57.10648   -930.47686   -930.47686 -1.0825938e-10    -497263.4            0    1424680.9 
       0.052       52    436.86457    2.2870545 2.331656e-10 1.8556262e-10     57.10648     57.10648    -930.4933    -930.4933 8.3340496e-12    -497263.4            0    1424680.9 
       0.053       53    436.86457    2.2567801 1.3938433e-10 9.5043109e-11     57.10648     57.10648   -930.51163   -930.51163 1.4436253e-11    -497263.4            0    1424680.9 
       0.054       54    436.86457    2.2273598 1.2866901e-10 1.6879943e-10     57.10648     57.10648   -930.52925   -930.52925 -1.587278e-11    -497263.4            0    1424680.9 
       0.055       55    436.86457    2.2022558 1.2213843e-10 2.864109e-10     57.10648     57.10648   -930.54401   -930.54401 2.6513999e-11    -497263.4            0    1424680.9 
       0.056       56    436.86457    2.1778221 6.943866e-11 1.8366031e-10     57.10648     57.10648    -930.5584    -930.5584 8.5968987e-11    -497263.4            0    1424680.9 
       0.057       57    436.86457    2.1498349 6.8613521e-11  2.28355e-10     57.10648     57.10648    -930.5752    -930.5752 1.0975923e-10    -497263.4            0    1424680.9 
       0.058       58    436.86457    2.1252048 8.7055932e-11 3.5720462e-10     57.10648     57.10648   -930.59007   -930.59007 9.1359187e-11    -497263.4            0    1424680.9 
       0.059       59    436.86457    2.1019902 5.5361632e-11 2.527668e-10     57.10648     57.10648   -930.60393   -930.60393 3.4485507e-11    -497263.4            0    1424680.9 
        0.06       60    436.86457    2.0775726 2.5234293e-11 2.1947613e-10     57.10648     57.10648   -930.61827   -930.61827 1.241931e-11    -497263.4            0    1424680.9 
       0.061       61    436.86457    2.0554124 2.1990122e-11 3.8926908e-10     57.10648     57.10648    -930.6314    -930.6314 -2.2144475e-12    -497263.4            0    1424680.9 
       0.062       62    436.86457    2.0335171  1.72909e-11 2.9663866e-10     57.10648     57.10648   -930.64457   -930.64457 -1.3255397e-11    -497263.4            0    1424680.9 
       0.063       63    436.86457    2.0102829 2.0871416e-11 1.9416953e-10     57.10648     57.10648   -930.65858   -930.65858 -2.3085453e-11    -497263.4            0    1424680.9 
       0.064       64    436.86457    1.9886282 5.1317894e-11 2.8517993e-10     57.10648     57.10648   -930.67142   -930.67142 -4.6970638e-11    -497263.4            0    1424680.9 
       0.065       65    436.86457     1.969666 6.304731e-11 2.0880676e-10     57.10648     57.10648   -930.68258   -930.68258 -1.2116992e-11    -497263.4            0    1424680.9 
       0.066       66    436.86457    1.9488026 6.3095752e-11 1.1464587e-10     57.10648     57.10648   -930.69497   -930.69497 2.9487007e-11    -497263.4            0    1424680.9 
       0.067       67    436.86457    1.9273004 8.3394235e-11 1.4479669e-10     57.10648     57.10648   -930.70793   -930.70793 4.119947e-11    -497263.4            0    1424680.9 
       0.068       68    436.86457    1.9088807 9.1719492e-11 1.4012208e-10     57.10648     57.10648   -930.71899   -930.71899 1.8128228e-12    -497263.4            0    1424680.9 
       0.069       69    436.86457    1.8893749 8.0822988e-11 7.7986481e-11     57.10648     57.10648   -930.73054   -930.73054 -3.7466827e-11    -497263.4            0    1424680.9 
        0.07       70    436.86457    1.8705453 1.0288809e-10 8.9440965e-11     57.10648     57.10648   -930.74163   -930.74163 -7.7069386e-11    -497263.4            0    1424680.9 
       0.071       71    436.86457    1.8529747 1.2132849e-10 1.0617505e-10     57.10648     57.10648   -930.75212   -930.75212 -9.4175164e-11    -497263.4            0    1424680.9 
       0.072       72    436.86457    1.8342637 8.2744471e-11 7.2790159e-11     57.10648     57.10648    -930.7634    -930.7634 -3.9704882e-11    -497263.4            0    1424680.9 
       0.073       73    436.86457     1.815758 1.0849647e-10 1.1350804e-10     57.10648     57.10648   -930.77447   -930.77447 -2.4090051e-12    -497263.4            0    1424680.9 
       0.074       74    436.86457    1.7993086 1.3129821e-10 1.4845833e-10     57.10648     57.10648   -930.78419   -930.78419 3.0820324e-11    -497263.4            0    1424680.9 
       0.075       75    436.86457     1.783022 7.7182637e-11 8.3840914e-11     57.10648     57.10648    -930.7938    -930.7938 1.5100651e-11    -497263.4            0    1424680.9 
       0.076       76    436.86457    1.7650539 6.0953131e-11 9.2210549e-11     57.10648     57.10648   -930.80456   -930.80456 3.0464926e-12    -497263.4            0    1424680.9 
       0.077       77    436.86457    1.7488367 6.0341323e-11 1.2101318e-10     57.10648     57.10648   -930.81432   -930.81432 2.034532e-11    -497263.4            0    1424680.9 
       0.078       78    436.86457    1.7329421 4.6774068e-11 7.6825315e-11     57.10648     57.10648   -930.82381   -930.82381 3.6535274e-11    -497263.4            0    1424680.9 
       0.079       79    436.86457    1.7165072 4.2060171e-11 6.5268382e-11     57.10648     57.10648    -930.8335    -930.8335 2.9955937e-11    -497263.4            0    1424680.9 
        0.08       80    436.86457    1.7016357 4.3709702e-11 8.8738925e-11     57.10648     57.10648   -930.84232   -930.84232 9.2370683e-12    -497263.4            0    1424680.9 
       0.081       81    436.86457    1.6861405 2.5627188e-11 6.0256555e-11     57.10648     57.10648   -930.85161   -930.85161 -5.406103e-12    -497263.4            0    1424680.9 
       0.082       82    436.86457    1.6700851 2.3729115e-11 5.664946e-11     57.10648     57.10648   -930.86126   -930.86126 -8.4157338e-12    -497263.4            0    1424680.9 
       0.083       83    436.86457    1.6553961 2.9566846e-11 8.9206138e-11     57.10648     57.10648      -930.87      -930.87 -1.5679142e-11    -497263.4            0    1424680.9 
       0.084       84    436.86457    1.6414087 9.8322387e-12 7.0449594e-11     57.10648     57.10648   -930.87825   -930.87825 -1.3811446e-11    -497263.4            0    1424680.9 
       0.085       85    436.86457    1.6265047 2.3237698e-12 6.6883471e-11     57.10648     57.10648    -930.8871    -930.8871 -9.323706e-12    -497263.4            0    1424680.9 
       0.086       86    436.86457     1.611943 6.0263123e-12 8.8767385e-11     57.10648     57.10648   -930.89585   -930.89585 5.204408e-12    -497263.4            0    1424680.9 
       0.087       87    436.86457    1.5982496 2.6073381e-12 7.1000215e-11     57.10648     57.10648   -930.90407   -930.90407 1.559717e-11    -497263.4            0    1424680.9 
       0.088       88    436.86457    1.5837517 -1.4771356e-12 6.2028094e-11     57.10648     57.10648   -930.91267   -930.91267 9.2921872e-12    -497263.4            0    1424680.9 
       0.089       89    436.86457    1.5704858 -5.5352908e-12 6.9763668e-11     57.10648     57.10648   -930.92051   -930.92051 -7.7384315e-12    -497263.4            0    1424680.9 
        0.09       90    436.86457    1.5573948 -8.8043001e-12 5.1156246e-11     57.10648     57.10648   -930.92831   -930.92831 -1.1523513e-11    -497263.4            0    1424680.9 
       0.091       91    436.86457    1.5431291 -3.1080818e-12 3.5003753e-11     57.10648     57.10648   -930.93688   -930.93688 -1.3994553e-11    -497263.4            0    1424680.9 
       0.092       92    436.86457    1.5300218 5.4259738e-12 3.8286417e-11     57.10648     57.10648   -930.94472   -930.94472 -2.0031149e-11    -497263.4            0    1424680.9 
       0.093       93    436.86457    1.5174116 5.5065381e-12 2.5809342e-11     57.10648     57.10648   -930.95219   -930.95219 -4.0165826e-12    -497263.4            0    1424680.9 
       0.094       94    436.86457    1.5043559 9.1175596e-12 1.1287537e-11     57.10648     57.10648   -930.95991   -930.95991 1.4187408e-11    -497263.4            0    1424680.9 
       0.095       95    436.86457    1.4914057 2.3702308e-11 -3.7538701e-13     57.10648     57.10648   -930.96765   -930.96765 2.7855468e-11    -497263.4            0    1424680.9 
       0.096       96    436.86457    1.4790497 2.4435946e-11 -1.1338578e-11     57.10648     57.10648   -930.97507   -930.97507 1.8924013e-11    -497263.4            0    1424680.9 
       0.097       97    436.86457    1.4661762 1.9680686e-11 -1.3336172e-11     57.10648     57.10648   -930.98276   -930.98276 1.0506038e-11    -497263.4            0    1424680.9 
       0.098       98    436.86457    1.4539342 2.3103978e-11 -7.6191396e-12     57.10648     57.10648      -930.99      -930.99 8.7761309e-12    -497263.4            0    1424680.9 
       0.099       99    436.86457    1.4424605 1.785649e-11 -3.7584675e-12     57.10648     57.10648    -930.9968    -930.9968 6.2311516e-12    -497263.4            0    1424680.9 
         0.1      100    436.86457    1.4296654 1.3288475e-11 -5.6986601e-12     57.10648     57.10648   -931.00446   -931.00446 2.9067957e-12    -497263.4            0    1424680.9 
       0.101      101    436.86457    1.4174517 1.6835887e-11 1.9390013e-12     57.10648     57.10648   -931.01179   -931.01179 -4.5044194e-12    -497263.4            0    1424680.9 
       0.102      102    436.86457    1.4060374 1.0769336e-11 9.1786641e-12     57.10648     57.10648   -931.01858   -931.01858 -1.2626928e-11    -497263.4            0    1424680.9 
       0.103      103    436.86457    1.3941389 2.9200767e-12 5.7971799e-12     57.10648     57.10648   -931.02562   -931.02562 -1.9902299e-11    -497263.4            0    1424680.9 
       0.104      104    436.86457    1.3825883 6.8121828e-12 1.0525359e-11     57.10648     57.10648   -931.03248   -931.03248 -3.0667699e-11    -497263.4            0    1424680.9 
       0.105      105    436.86457    1.3712003 3.4584832e-12 1.3056457e-11     57.10648     57.10648   -931.03931   -931.03931 -2.1518103e-11    -497263.4            0    1424680.9 
       0.106      106    436.86457    1.3594483 2.0006906e-12 8.2747842e-12     57.10648     57.10648   -931.04635   -931.04635 -1.3327479e-11    -497263.4            0    1424680.9 
       0.107      107    436.86457    1.3480736 6.8193694e-12 1.055835e-11     57.10648     57.10648   -931.05311   -931.05311 -1.5756175e-11    -497263.4            0    1424680.9 
       0.108      108    436.86457    1.3374651 2.7349925e-12 5.0735322e-12     57.10648     57.10648   -931.05939   -931.05939 -5.2069165e-12    -497263.4            0    1424680.9 
       0.109      109    436.86457     1.326131 -1.1885997e-12 2.1470487e-12     57.10648     57.10648   -931.06613   -931.06613 4.4091782e-12    -497263.4            0    1424680.9 
        0.11      110    436.86457    1.3148013 1.4878779e-12 7.2506836e-12     57.10648     57.10648   -931.07293   -931.07293 -1.5420222e-12    -497263.4            0    1424680.9 
       0.111      111    436.86457    1.3042206 2.5992649e-12 5.988412e-12     57.10648     57.10648   -931.07926   -931.07926 -8.8228831e-12    -497263.4            0    1424680.9 
       0.112      112    436.86457    1.2930927 5.4096131e-12 1.9963001e-12     57.10648     57.10648   -931.08587   -931.08587 -2.7006026e-12    -497263.4            0    1424680.9 
       0.113      113    436.86457    1.2827778 1.4117944e-11 -1.1487578e-12     57.10648     57.10648   -931.09197   -931.09197 5.8401847e-12    -497263.4            0    1424680.9 
       0.114      114    436.86457    1.2734195 7.2721929e-12 -2.9829284e-12     57.10648     57.10648   -931.09756   -931.09756 6.9432789e-12    -497263.4            0    1424680.9 
       0.115      115    436.86457    1.2653738 -2.8304348e-12 -7.3382478e-12     57.10648     57.10648   -931.10239   -931.10239 4.1418908e-12    -497263.4            0    1424680.9 
       0.116      116    436.86457    1.2606345 -5.4866405e-12 -1.2603033e-11     57.10648     57.10648   -931.10522   -931.10522 4.2743551e-12    -497263.4            0    1424680.9 
       0.117      117    436.86457    1.2584222 -9.6767447e-12 -1.6058137e-11     57.10648     57.10648   -931.10652   -931.10652 1.2578416e-12    -497263.4            0    1424680.9 
       0.118      118    436.86457     1.257341 -1.1631547e-11 -1.5485705e-11     57.10648     57.10648   -931.10715   -931.10715 -3.3678611e-13    -497263.4            0    1424680.9 
       0.119      119    436.86457    1.2563458 -1.1581423e-11 -1.6180283e-11     57.10648     57.10648   -931.10775   -931.10775 2.750864e-13    -497263.4            0    1424680.9 
        0.12      120    436.86457    1.2537355 -1.2731949e-11 -1.465701e-11     57.10648     57.10648   -931.10932   -931.10932 -2.8320122e-12    -497263.4            0    1424680.9 
       0.121      121    436.86457    1.2377481 -9.9954765e-12 6.3941486e-12     57.10648     57.10648   -931.11889   -931.11889 -2.1448606e-11    -497263.4            0    1424680.9 
       0.122      122    436.86457    1.1196922 8.9822234e-11 2.2618849e-10     57.10648     57.10648   -931.18925   -931.18925 -1.9161915e-10    -497263.4            0    1424680.9 
       0.123      123    436.86457   0.56548972 -2.9907264e-10 5.9333137e-10     57.10648     57.10648   -931.51933   -931.51933 -5.5023688e-10    -497263.4            0    1424680.9 
       0.124      124    436.86457  0.084283472 -9.5470974e-10 -2.2463129e-10     57.10648     57.10648   -931.80603   -931.80603 -1.4654502e-10    -497263.4            0    1424680.9 
       0.125      125    436.86457  0.014934041 -1.0606813e-09 -5.5509103e-10     57.10648     57.10648   -931.84743   -931.84743 -1.7030888e-11    -497263.4            0    1424680.9 
       0.126      126    436.86457  0.007113915 -9.9885971e-10 -5.7679986e-10     57.10648     57.10648   -931.85214   -931.85214 -2.3392667e-12    -497263.4            0    1424680.9 
       0.127      127    436.86457 0.0045458667 -8.6251342e-10 -5.4458652e-10     57.10648     57.10648   -931.85369   -931.85369 -1.9335429e-12    -497263.4            0    1424680.9 
       0.128      128    436.86457 0.0015542799 -5.9638135e-10 -4.6885772e-10     57.10648     57.10648   -931.85548   -931.85548 -9.160663e-13    -497263.4            0    1424680.9 
       0.129      129    436.86457 0.00058753139 -4.8680105e-10 -4.2299844e-10     57.10648     57.10648   -931.85604   -931.85604 -1.8020166e-13    -497263.4            0    1424680.9 
        0.13      130    436.86457 0.00044043969 -4.5580062e-10 -3.8807074e-10     57.10648     57.10648   -931.85612   -931.85612 1.0445711e-13    -497263.4            0    1424680.9 
Loop time of 15.3859 on 64 procs for 130 steps with 120800 atoms

84.4% CPU use with 64 MPI tasks x 1 OpenMP threads

Minimization stats:
  Stopping criterion = energy tolerance
  Energy initial, next-to-last, final = 
     -497261.355337392  -497263.401315488  -497263.401315488
  Force two-norm initial, final = 7.1080974 2.4830197e-05
  Force max component initial, final = 0.19826945 3.5474964e-07
  Final line search alpha, max atom move = 1.0000000 3.5474964e-07
  Iterations, force evaluations = 130 260

MPI task timing breakdown:
Section |  min time  |  avg time  |  max time  |%varavg| %total
---------------------------------------------------------------
Pair    | 8.1006     | 8.6818     | 9.0494     |   7.7 | 56.43
Neigh   | 0          | 0          | 0          |   0.0 |  0.00
Comm    | 3.1868     | 3.5027     | 3.6419     |   4.5 | 22.77
Output  | 0.48381    | 0.48508    | 0.48781    |   0.1 |  3.15
Modify  | 0          | 0          | 0          |   0.0 |  0.00
Other   |            | 2.716      |            |       | 17.65

Nlocal:        1887.50 ave        2000 max        1600 min
Histogram: 4 0 0 0 0 0 0 56 0 4
Nghost:        5147.12 ave        5315 max        4353 min
Histogram: 4 0 0 4 0 0 0 16 4 36
Neighs:         0.00000 ave           0 max           0 min
Histogram: 64 0 0 0 0 0 0 0 0 0
FullNghs:      315025.0 ave      336000 max      252200 min
Histogram: 4 0 0 0 0 0 4 52 0 4

Total # of neighbors = 20161600
Ave neighs/atom = 166.90066
Neighbor list builds = 0
Dangerous builds = 0
ERROR: Illegal jump command (../input.cpp:995)
Last command: jump
--------------------------------------------------------------------------
Primary job  terminated normally, but 1 process returned
a non-zero exit code. Per user-direction, the job has been aborted.
--------------------------------------------------------------------------
--------------------------------------------------------------------------
mpirun detected that one or more processes exited with non-zero status, thus causing
the job to be terminated. The first process to do so was:

  Process name: [[19056,1],36]
  Exit code:    1
--------------------------------------------------------------------------
