LAMMPS (29 Sep 2021 - Update 1)
KOKKOS mode is enabled (../kokkos.cpp:97)
  will use up to 2 GPU(s) per node
  using 1 OpenMP thread(s) per MPI task
Reading data file ...
  orthogonal box = (0.0000000 0.0000000 0.0000000) to (436.86457 57.106480 57.106480)
  16 by 2 by 2 MPI processor grid
  reading atoms ...
  120800 atoms
  read_data CPU = 0.275 seconds
800 atoms in group source
800 atoms in group detector
0 atoms in group edge
0 atoms in group edge_buf
0 atoms in group buffer
WARNING: Using 'neigh_modify every 1 delay 0 check yes' setting during minimization (../min.cpp:188)
Neighbor list info ...
  update every 1 steps, delay 0 steps, check yes
  max neighbors/atom: 2000, page size: 100000
  master list distance cutoff = 7.6
  ghost atom cutoff = 7.6
  binsize = 7.6, bins = 58 8 8
  1 neighbor lists, perpetual/occasional/extra = 1 0 0
  (1) pair eam/alloy/kk, perpetual
      attributes: full, newton off, kokkos_device
      pair build: full/bin/kk/device
      stencil: full/bin/3d
      bin: kk/device
Setting up cg/kk style minimization ...
  Unit style    : metal
  Current step  : 0
WARNING: Fixes cannot yet send exchange data in Kokkos communication, switching to classic exchange/border communication (../comm_kokkos.cpp:581)
Per MPI rank memory allocation (min/avg/max) = 2.301 | 2.470 | 2.508 Mbytes
Time Step Lx Pxx Pxy Pxz Ly Lz Pyy Pzz Pyz TotEng Temp Volume 
           0        0    436.86457    118.80219 -5.4175191e-13 -4.7169458e-13     57.10648     57.10648    -812.7081    -812.7081 3.0395791e-13   -497261.36            0    1424680.9 
       0.001        1    436.86457     44.79424 -5.1605783e-13 -5.2515166e-13     57.10648     57.10648   -904.84846   -904.84846 -3.5543296e-13   -497263.27            0    1424680.9 
       0.002        2    436.86457     23.52156 -2.9908006e-13 -6.9501253e-13     57.10648     57.10648   -922.24294   -922.24294 -3.5692992e-14   -497263.32            0    1424680.9 
       0.003        3    436.86457    28.149253 -7.7821075e-13 -5.8047888e-13     57.10648     57.10648   -914.02867   -914.02867 -5.3955233e-13   -497263.39            0    1424680.9 
       0.004        4    436.86457    22.769747 -1.3195255e-13 5.4746842e-14     57.10648     57.10648   -917.45532   -917.45532 -1.8103057e-12    -497263.4            0    1424680.9 
       0.005        5    436.86457    15.459859 -1.5191682e-13 -1.5748203e-13     57.10648     57.10648   -922.54335   -922.54335 -4.7343226e-13    -497263.4            0    1424680.9 
       0.006        6    436.86457    12.792724 -4.6911173e-13 -7.5327002e-13     57.10648     57.10648   -924.29598   -924.29598 -3.5277282e-13    -497263.4            0    1424680.9 
       0.007        7    436.86457    11.298523 -3.7802365e-14 5.5994912e-13     57.10648     57.10648   -925.04899   -925.04899 -2.2902018e-12    -497263.4            0    1424680.9 
       0.008        8    436.86457    10.158465 7.4069051e-13 5.881575e-13     57.10648     57.10648   -925.72096   -925.72096 -1.4957591e-12    -497263.4            0    1424680.9 
       0.009        9    436.86457    8.7822335 4.5689015e-13 2.3368685e-14     57.10648     57.10648   -926.61722   -926.61722 1.1414688e-14    -497263.4            0    1424680.9 
        0.01       10    436.86457    7.9756887 1.4026342e-12 1.1756316e-12     57.10648     57.10648   -927.10962   -927.10962 -4.4041523e-13    -497263.4            0    1424680.9 
       0.011       11    436.86457    7.3895153 4.2546167e-13 1.7947802e-13     57.10648     57.10648   -927.43503   -927.43503 -9.1853711e-13    -497263.4            0    1424680.9 
       0.012       12    436.86457    6.8833877 -3.3558732e-13 -3.2870627e-13     57.10648     57.10648    -927.7324    -927.7324 -1.3920923e-14    -497263.4            0    1424680.9 
       0.013       13    436.86457    6.3274472 6.2507911e-13 -1.0449401e-12     57.10648     57.10648   -928.08443   -928.08443 1.2931819e-13    -497263.4            0    1424680.9 
       0.014       14    436.86457    5.9317412 4.0099483e-13 8.7798585e-13     57.10648     57.10648   -928.32489   -928.32489 1.7659843e-13    -497263.4            0    1424680.9 
       0.015       15    436.86457    5.6267772 4.3000753e-13 3.7452256e-13     57.10648     57.10648   -928.49523   -928.49523 -3.9318783e-13    -497263.4            0    1424680.9 
       0.016       16    436.86457    5.3396062 1.6272493e-13  3.80071e-13     57.10648     57.10648   -928.66612   -928.66612 -6.5413551e-15    -497263.4            0    1424680.9 
       0.017       17    436.86457    5.0405437 1.5035618e-12 -2.5381266e-13     57.10648     57.10648   -928.85271   -928.85271 -1.8606106e-14    -497263.4            0    1424680.9 
       0.018       18    436.86457    4.8076098 2.6170658e-14 -4.5231267e-13     57.10648     57.10648   -928.99267   -928.99267 -2.0271651e-13    -497263.4            0    1424680.9 
       0.019       19    436.86457    4.6186846 -4.8656431e-13 -1.6327757e-13     57.10648     57.10648   -929.10002   -929.10002 -1.2660937e-13    -497263.4            0    1424680.9 
        0.02       20    436.86457     4.433151 -8.1288485e-14 2.5675266e-13     57.10648     57.10648   -929.21062   -929.21062 -4.4298611e-13    -497263.4            0    1424680.9 
       0.021       21    436.86457    4.2464509 9.7021904e-13 1.0139471e-13     57.10648     57.10648   -929.32623   -929.32623 -6.2953205e-13    -497263.4            0    1424680.9 
       0.022       22    436.86457    4.0922426 1.5341623e-12 1.9729308e-12     57.10648     57.10648   -929.41835   -929.41835 -5.373277e-13    -497263.4            0    1424680.9 
       0.023       23    436.86457    3.9634832  1.96285e-11 2.4115941e-12     57.10648     57.10648   -929.49207   -929.49207 -4.1978996e-12    -497263.4            0    1424680.9 
       0.024       24    436.86457    3.8332393 1.8763787e-10 1.5084469e-11     57.10648     57.10648   -929.57004   -929.57004 -4.7011596e-11    -497263.4            0    1424680.9 
       0.025       25    436.86457    3.7071701 1.3265874e-09 8.7325853e-11     57.10648     57.10648   -929.64758   -929.64758 -3.8180201e-10    -497263.4            0    1424680.9 
       0.026       26    436.86457    3.6104244 7.2956156e-09 3.9318802e-10     57.10648     57.10648   -929.70529   -929.70529 -2.438671e-09    -497263.4            0    1424680.9 
       0.027       27    436.86457    3.5362274 5.1960001e-09 1.6298572e-10     57.10648     57.10648   -929.74838   -929.74838 -2.2292379e-09    -497263.4            0    1424680.9 
       0.028       28    436.86457     3.454585 1.0480052e-09 -3.3012083e-11     57.10648     57.10648   -929.79604   -929.79604 -8.9152448e-10    -497263.4            0    1424680.9 
       0.029       29    436.86457    3.3573975 6.7711135e-10 6.5975432e-11     57.10648     57.10648   -929.85516   -929.85516 -1.1637364e-09    -497263.4            0    1424680.9 
        0.03       30    436.86457    3.2782408 2.0124609e-09 5.3966861e-10     57.10648     57.10648   -929.90332   -929.90332 -3.451542e-09    -497263.4            0    1424680.9 
       0.031       31    436.86457    3.2170507 2.2093158e-09 6.3490803e-10     57.10648     57.10648   -929.93946   -929.93946 -3.444368e-09    -497263.4            0    1424680.9 
       0.032       32    436.86457    3.1532295 4.8915511e-10 1.6116622e-10     57.10648     57.10648   -929.97646   -929.97646 -4.9778985e-10    -497263.4            0    1424680.9 
       0.033       33    436.86457    3.0832309 4.7916415e-10 3.821794e-10     57.10648     57.10648   -930.01816   -930.01816 -1.1170992e-10    -497263.4            0    1424680.9 
       0.034       34    436.86457    3.0186209 1.2967109e-09 1.3085787e-09     57.10648     57.10648   -930.05757   -930.05757 -4.4309592e-10    -497263.4            0    1424680.9 
       0.035       35    436.86457    2.9681229 9.6491635e-10 9.2362193e-10     57.10648     57.10648   -930.08802   -930.08802 -5.1368142e-10    -497263.4            0    1424680.9 
       0.036       36    436.86457    2.9111349 2.7632684e-10 1.3782948e-10     57.10648     57.10648   -930.12147   -930.12147 -2.5763374e-10    -497263.4            0    1424680.9 
       0.037       37    436.86457    2.8584224 4.4394361e-10 9.2175058e-11     57.10648     57.10648   -930.15228   -930.15228 -4.2947577e-10    -497263.4            0    1424680.9 
       0.038       38    436.86457    2.8098773 1.0855573e-09 2.6537844e-10     57.10648     57.10648   -930.18151   -930.18151 -1.0597637e-09    -497263.4            0    1424680.9 
       0.039       39    436.86457    2.7631384 5.5744588e-10 1.2221183e-10     57.10648     57.10648   -930.20994   -930.20994 -6.1407551e-10    -497263.4            0    1424680.9 
        0.04       40    436.86457    2.7138478 3.4023291e-10 9.3116768e-11     57.10648     57.10648   -930.23942   -930.23942 -4.0491469e-10    -497263.4            0    1424680.9 
       0.041       41    436.86457    2.6709486 3.8432702e-10 2.5210836e-10     57.10648     57.10648   -930.26446   -930.26446 -3.9717027e-10    -497263.4            0    1424680.9 
       0.042       42    436.86457     2.635134   2.7339e-10  2.38174e-10     57.10648     57.10648   -930.28558   -930.28558 -2.8197618e-10    -497263.4            0    1424680.9 
       0.043       43    436.86457    2.5908361 1.2325932e-10 7.4459495e-11     57.10648     57.10648   -930.31229   -930.31229 -1.3574522e-10    -497263.4            0    1424680.9 
       0.044       44    436.86457     2.548241 1.0967539e-10 1.9145869e-11     57.10648     57.10648    -930.3381    -930.3381 4.0056386e-11    -497263.4            0    1424680.9 
       0.045       45    436.86457    2.5132081 1.7918061e-10 -5.7456749e-13     57.10648     57.10648   -930.35885   -930.35885 3.1931362e-10    -497263.4            0    1424680.9 
       0.046       46    436.86457    2.4798895 1.4540268e-10 1.6644329e-11     57.10648     57.10648   -930.37834   -930.37834 1.2751854e-10    -497263.4            0    1424680.9 
       0.047       47    436.86457    2.4430643 1.951609e-10 1.8008063e-11     57.10648     57.10648   -930.40021   -930.40021 -1.0346663e-11    -497263.4            0    1424680.9 
       0.048       48    436.86457    2.4077175 3.988085e-10 -5.3210482e-12     57.10648     57.10648   -930.42161   -930.42161 -1.6887458e-10    -497263.4            0    1424680.9 
       0.049       49    436.86457    2.3776469 3.6048597e-10 -4.0096778e-12     57.10648     57.10648   -930.43973   -930.43973 -2.374088e-10    -497263.4            0    1424680.9 
        0.05       50    436.86457    2.3445945 2.7026217e-10 1.0668845e-11     57.10648     57.10648   -930.45924   -930.45924 -2.0534089e-10    -497263.4            0    1424680.9 
       0.051       51    436.86457    2.3145163 4.3766211e-10 3.3421466e-11     57.10648     57.10648   -930.47689   -930.47689 -2.1787582e-10    -497263.4            0    1424680.9 
       0.052       52    436.86457    2.2869617 5.2496131e-10 6.9773743e-11     57.10648     57.10648   -930.49336   -930.49336 -1.4305091e-10    -497263.4            0    1424680.9 
       0.053       53    436.86457     2.256716 2.760935e-10 5.3147749e-11     57.10648     57.10648   -930.51167   -930.51167 -7.4568452e-11    -497263.4            0    1424680.9 
       0.054       54    436.86457     2.227322 3.3874756e-10 6.7520098e-11     57.10648     57.10648   -930.52927   -930.52927 -1.6663449e-10    -497263.4            0    1424680.9 
       0.055       55    436.86457    2.2022307 4.1498187e-10 9.2662033e-11     57.10648     57.10648   -930.54403   -930.54403 -2.1249194e-10    -497263.4            0    1424680.9 
       0.056       56    436.86457    2.1777857 2.2087148e-10 8.3925596e-11     57.10648     57.10648   -930.55842   -930.55842 -7.0896423e-11    -497263.4            0    1424680.9 
       0.057       57    436.86457    2.1497941 2.1032104e-10 1.2735299e-10     57.10648     57.10648   -930.57522   -930.57522 -6.073776e-11    -497263.4            0    1424680.9 
       0.058       58    436.86457    2.1251555 2.9825236e-10 1.9020229e-10     57.10648     57.10648    -930.5901    -930.5901 -1.3055787e-10    -497263.4            0    1424680.9 
       0.059       59    436.86457    2.1019268 2.3040721e-10 1.454077e-10     57.10648     57.10648   -930.60396   -930.60396 -1.0426713e-10    -497263.4            0    1424680.9 
        0.06       60    436.86457    2.0775141 1.8663627e-10 1.2303153e-10     57.10648     57.10648   -930.61831   -930.61831 -1.0100872e-10    -497263.4            0    1424680.9 
       0.061       61    436.86457    2.0553395 2.7419871e-10 1.7927332e-10     57.10648     57.10648   -930.63144   -930.63144 -2.0483394e-10    -497263.4            0    1424680.9 
       0.062       62    436.86457    2.0334351 2.1299234e-10 1.4301063e-10     57.10648     57.10648   -930.64462   -930.64462 -1.5806969e-10    -497263.4            0    1424680.9 
       0.063       63    436.86457    2.0102211 1.5379129e-10 9.3635615e-11     57.10648     57.10648   -930.65862   -930.65862 -9.6309764e-11    -497263.4            0    1424680.9 
       0.064       64    436.86457    1.9885885 2.4081536e-10 1.1549842e-10     57.10648     57.10648   -930.67145   -930.67145 -1.2370748e-10    -497263.4            0    1424680.9 
       0.065       65    436.86457    1.9696238 1.9756261e-10 9.1474331e-11     57.10648     57.10648    -930.6826    -930.6826 -5.2987328e-11    -497263.4            0    1424680.9 
       0.066       66    436.86457    1.9487507 1.279177e-10 6.0076115e-11     57.10648     57.10648     -930.695     -930.695 1.1904213e-11    -497263.4            0    1424680.9 
       0.067       67    436.86457    1.9272704 1.6069654e-10 5.4201781e-11     57.10648     57.10648   -930.70795   -930.70795 2.7162948e-11    -497263.4            0    1424680.9 
       0.068       68    436.86457    1.9088569 1.7563339e-10 4.5061915e-11     57.10648     57.10648   -930.71901   -930.71901 3.3370425e-12    -497263.4            0    1424680.9 
       0.069       69    436.86457    1.8893394 1.2640767e-10 3.8958227e-11     57.10648     57.10648   -930.73056   -930.73056 -2.6272474e-11    -497263.4            0    1424680.9 
        0.07       70    436.86457    1.8705257 1.4040683e-10 3.9979603e-11     57.10648     57.10648   -930.74165   -930.74165 -6.8593398e-11    -497263.4            0    1424680.9 
       0.071       71    436.86457    1.8529578 1.6846738e-10 2.8254307e-11     57.10648     57.10648   -930.75213   -930.75213 -8.5298941e-11    -497263.4            0    1424680.9 
       0.072       72    436.86457    1.8342214 1.2719672e-10 2.3169316e-11     57.10648     57.10648   -930.76342   -930.76342 -3.1504943e-11    -497263.4            0    1424680.9 
       0.073       73    436.86457    1.8157221 1.6206167e-10 2.2550453e-11     57.10648     57.10648   -930.77449   -930.77449 -6.5458941e-12    -497263.4            0    1424680.9 
       0.074       74    436.86457    1.7992906 1.9106021e-10 1.9645891e-11     57.10648     57.10648    -930.7842    -930.7842 6.1735041e-12    -497263.4            0    1424680.9 
       0.075       75    436.86457    1.7829917 1.1857225e-10 1.4117199e-11     57.10648     57.10648   -930.79382   -930.79382 -4.8666829e-12    -497263.4            0    1424680.9 
       0.076       76    436.86457    1.7650215 1.1672458e-10 1.1246612e-11     57.10648     57.10648   -930.80458   -930.80458 -2.4008262e-11    -497263.4            0    1424680.9 
       0.077       77    436.86457    1.7488185 1.3278568e-10 2.0987932e-11     57.10648     57.10648   -930.81433   -930.81433 -1.5324128e-11    -497263.4            0    1424680.9 
       0.078       78    436.86457    1.7329205 8.9499926e-11 2.2407482e-11     57.10648     57.10648   -930.82382   -930.82382 1.7627069e-11    -497263.4            0    1424680.9 
       0.079       79    436.86457    1.7164952 7.3670548e-11 2.1961619e-11     57.10648     57.10648   -930.83351   -930.83351 1.2420038e-11    -497263.4            0    1424680.9 
        0.08       80    436.86457    1.7016332 8.0327927e-11 2.3293986e-11     57.10648     57.10648   -930.84232   -930.84232 -2.1705779e-11    -497263.4            0    1424680.9 
       0.081       81    436.86457     1.686112 4.7083622e-11 1.5004439e-11     57.10648     57.10648   -930.85163   -930.85163 -3.0976974e-11    -497263.4            0    1424680.9 
       0.082       82    436.86457    1.6700511 4.4048491e-11 2.1370558e-11     57.10648     57.10648   -930.86128   -930.86128 -3.9095882e-11    -497263.4            0    1424680.9 
       0.083       83    436.86457    1.6553723 6.605345e-11 4.5737837e-11     57.10648     57.10648   -930.87001   -930.87001 -6.8947911e-11    -497263.4            0    1424680.9 
       0.084       84    436.86457    1.6413789 3.5457247e-11 3.8417485e-11     57.10648     57.10648   -930.87827   -930.87827 -5.5362245e-11    -497263.4            0    1424680.9 
       0.085       85    436.86457    1.6264649 2.8399303e-11 3.1573309e-11     57.10648     57.10648   -930.88713   -930.88713 -5.2716806e-11    -497263.4            0    1424680.9 
       0.086       86    436.86457    1.6119021 3.5079291e-11 3.8695972e-11     57.10648     57.10648   -930.89588   -930.89588 -5.7615334e-11    -497263.4            0    1424680.9 
       0.087       87    436.86457    1.5982099 2.0880495e-11 3.292576e-11     57.10648     57.10648   -930.90409   -930.90409 -2.8776085e-11    -497263.4            0    1424680.9 
       0.088       88    436.86457    1.5837193 2.0833678e-11 2.727611e-11     57.10648     57.10648   -930.91269   -930.91269 -2.8498084e-11    -497263.4            0    1424680.9 
       0.089       89    436.86457    1.5704614 3.3171923e-11 2.8327123e-11     57.10648     57.10648   -930.92052   -930.92052 -5.5553838e-11    -497263.4            0    1424680.9 
        0.09       90    436.86457    1.5573592 2.6763626e-11 2.5120455e-11     57.10648     57.10648   -930.92833   -930.92833 -4.8919006e-11    -497263.4            0    1424680.9 
       0.091       91    436.86457    1.5430942 1.8373752e-11 1.9599803e-11     57.10648     57.10648    -930.9369    -930.9369 -4.456787e-11    -497263.4            0    1424680.9 
       0.092       92    436.86457    1.5299993 2.7252096e-11 2.4144626e-11     57.10648     57.10648   -930.94473   -930.94473 -6.1874581e-11    -497263.4            0    1424680.9 
       0.093       93    436.86457    1.5173882 1.907215e-11 2.4607428e-11     57.10648     57.10648    -930.9522    -930.9522 -3.0517673e-11    -497263.4            0    1424680.9 
       0.094       94    436.86457    1.5043385 1.3590261e-11  1.78636e-11     57.10648     57.10648   -930.95992   -930.95992 -4.7768017e-12    -497263.4            0    1424680.9 
       0.095       95    436.86457     1.491411 3.2398342e-11 7.9889741e-12     57.10648     57.10648   -930.96765   -930.96765 -2.5109679e-12    -497263.4            0    1424680.9 
       0.096       96    436.86457    1.4790419 3.0622092e-11 3.656392e-12     57.10648     57.10648   -930.97508   -930.97508 -1.6122244e-12    -497263.4            0    1424680.9 
       0.097       97    436.86457    1.4661536 2.5123235e-11 -4.8969734e-14     57.10648     57.10648   -930.98277   -930.98277 -7.3193051e-13    -497263.4            0    1424680.9 
       0.098       98    436.86457    1.4539224 3.6574307e-11 -6.4750551e-12     57.10648     57.10648   -930.99001   -930.99001 -2.3485838e-12    -497263.4            0    1424680.9 
       0.099       99    436.86457    1.4424501 3.2351405e-11 -3.4718193e-12     57.10648     57.10648   -930.99681   -930.99681 1.9654487e-12    -497263.4            0    1424680.9 
         0.1      100    436.86457    1.4296589 2.5138518e-11 -1.1831041e-12     57.10648     57.10648   -931.00446   -931.00446 5.7241582e-12    -497263.4            0    1424680.9 
       0.101      101    436.86457    1.4174752 3.3381443e-11 -7.44158e-13     57.10648     57.10648   -931.01177   -931.01177 2.1350765e-12    -497263.4            0    1424680.9 
       0.102      102    436.86457    1.4060609 2.9960797e-11 4.3414021e-12     57.10648     57.10648   -931.01857   -931.01857 -2.0997066e-12    -497263.4            0    1424680.9 
       0.103      103    436.86457    1.3941486 2.0455003e-11 2.5731102e-12     57.10648     57.10648   -931.02562   -931.02562 -9.8917128e-12    -497263.4            0    1424680.9 
       0.104      104    436.86457     1.382616 2.9706286e-11 -1.0484274e-12     57.10648     57.10648   -931.03247   -931.03247 -2.1446355e-11    -497263.4            0    1424680.9 
       0.105      105    436.86457    1.3712228 2.8480149e-11 2.1841296e-12     57.10648     57.10648   -931.03929   -931.03929 -1.355654e-11    -497263.4            0    1424680.9 
       0.106      106    436.86457    1.3594541 2.4547701e-11 6.2777798e-12     57.10648     57.10648   -931.04635   -931.04635 -8.2600377e-12    -497263.4            0    1424680.9 
       0.107      107    436.86457    1.3480895 3.0111436e-11 2.9684692e-12     57.10648     57.10648    -931.0531    -931.0531 -1.5711316e-11    -497263.4            0    1424680.9 
       0.108      108    436.86457    1.3374749 1.8766598e-11 -1.7239332e-13     57.10648     57.10648   -931.05938   -931.05938 -6.7198774e-12    -497263.4            0    1424680.9 
       0.109      109    436.86457     1.326129 1.2911841e-11 1.7355105e-12     57.10648     57.10648   -931.06614   -931.06614 -4.8882533e-13    -497263.4            0    1424680.9 
        0.11      110    436.86457    1.3148114 1.4810909e-11 3.7777809e-13     57.10648     57.10648   -931.07292   -931.07292 -1.2827712e-11    -497263.4            0    1424680.9 
       0.111      111    436.86457    1.3042308 6.1048894e-12 -1.2371617e-13     57.10648     57.10648   -931.07925   -931.07925 -1.9031901e-11    -497263.4            0    1424680.9 
       0.112      112    436.86457    1.2930897 4.6845126e-12 -8.1690773e-13     57.10648     57.10648   -931.08587   -931.08587 -1.4011285e-11    -497263.4            0    1424680.9 
       0.113      113    436.86457    1.2827729 1.0573407e-11 -7.9756576e-12     57.10648     57.10648   -931.09198   -931.09198 -1.4864835e-11    -497263.4            0    1424680.9 
       0.114      114    436.86457    1.2734106 2.6353231e-12 -9.7136228e-12     57.10648     57.10648   -931.09756   -931.09756 -1.0344477e-11    -497263.4            0    1424680.9 
       0.115      115    436.86457    1.2653614 -1.0624455e-11 -7.1366253e-12     57.10648     57.10648   -931.10239   -931.10239 -4.5490416e-12    -497263.4            0    1424680.9 
       0.116      116    436.86457    1.2606266 -1.7824942e-11 -6.729822e-12     57.10648     57.10648   -931.10522   -931.10522 -2.463184e-12    -497263.4            0    1424680.9 
       0.117      117    436.86457    1.2584193 -2.6077341e-11 -7.5417965e-12     57.10648     57.10648   -931.10652   -931.10652 -1.0438128e-13    -497263.4            0    1424680.9 
       0.118      118    436.86457    1.2573396 -3.0468782e-11 -8.6187953e-12     57.10648     57.10648   -931.10715   -931.10715 -8.8386112e-14    -497263.4            0    1424680.9 
       0.119      119    436.86457     1.256344 -2.9722982e-11 -8.6345823e-12     57.10648     57.10648   -931.10775   -931.10775 -1.2539318e-12    -497263.4            0    1424680.9 
        0.12      120    436.86457     1.253731 -2.6452288e-11 -8.2450162e-12     57.10648     57.10648   -931.10932   -931.10932 -5.6745276e-12    -497263.4            0    1424680.9 
       0.121      121    436.86457    1.2377193 9.3769984e-12 1.8382824e-12     57.10648     57.10648   -931.11891   -931.11891 -3.983156e-11    -497263.4            0    1424680.9 
       0.122      122    436.86457    1.1197141 4.5964873e-10 7.2265194e-11     57.10648     57.10648   -931.18924   -931.18924 -3.9677961e-10    -497263.4            0    1424680.9 
       0.123      123    436.86457   0.56590822 3.1689952e-10 2.3774436e-10     57.10648     57.10648   -931.51908   -931.51908 -8.4350353e-10    -497263.4            0    1424680.9 
       0.124      124    436.86457  0.084513261 -1.2140817e-09 -3.3341209e-12     57.10648     57.10648    -931.8059    -931.8059 -2.5400543e-10    -497263.4            0    1424680.9 
       0.125      125    436.86457  0.014951968 -1.611777e-09 -1.3119443e-10     57.10648     57.10648   -931.84742   -931.84742 -2.5459043e-11    -497263.4            0    1424680.9 
       0.126      126    436.86457 0.0071152437 -1.5494399e-09 -1.6164631e-10     57.10648     57.10648   -931.85214   -931.85214 -2.1427873e-12    -497263.4            0    1424680.9 
       0.127      127    436.86457 0.0045494218 -1.3482405e-09 -1.9674163e-10     57.10648     57.10648   -931.85369   -931.85369 -2.8248041e-12    -497263.4            0    1424680.9 
       0.128      128    436.86457 0.0015573235 -9.4646854e-10 -2.6099308e-10     57.10648     57.10648   -931.85548   -931.85548 -3.8545704e-13    -497263.4            0    1424680.9 
       0.129      129    436.86457 0.00058777195 -7.6293239e-10 -2.8074573e-10     57.10648     57.10648   -931.85604   -931.85604 8.7237711e-14    -497263.4            0    1424680.9 
        0.13      130    436.86457 0.00044054977 -6.9048523e-10 -2.7286815e-10     57.10648     57.10648   -931.85612   -931.85612 3.3110606e-13    -497263.4            0    1424680.9 
       0.131      131    436.86457 0.00026915597 -5.4364214e-10 -2.4296329e-10     57.10648     57.10648   -931.85622   -931.85622 -3.6442815e-14    -497263.4            0    1424680.9 
       0.132      132    436.86457 0.00012788016 -4.1124366e-10 -2.1044077e-10     57.10648     57.10648    -931.8563    -931.8563 -3.6969783e-13    -497263.4            0    1424680.9 
Loop time of 15.6442 on 64 procs for 132 steps with 120800 atoms

84.8% CPU use with 64 MPI tasks x 1 OpenMP threads

Minimization stats:
  Stopping criterion = energy tolerance
  Energy initial, next-to-last, final = 
     -497261.355337392  -497263.401315488  -497263.401315488
  Force two-norm initial, final = 7.1080974 1.4110898e-05
  Force max component initial, final = 0.19826945 1.9164882e-07
  Final line search alpha, max atom move = 1.0000000 1.9164882e-07
  Iterations, force evaluations = 132 264

MPI task timing breakdown:
Section |  min time  |  avg time  |  max time  |%varavg| %total
---------------------------------------------------------------
Pair    | 8.2633     | 8.8223     | 9.2845     |   8.0 | 56.39
Neigh   | 0          | 0          | 0          |   0.0 |  0.00
Comm    | 3.4441     | 3.5715     | 3.709      |   4.0 | 22.83
Output  | 0.48959    | 0.49251    | 0.49603    |   0.1 |  3.15
Modify  | 0          | 0          | 0          |   0.0 |  0.00
Other   |            | 2.758      |            |       | 17.63

Nlocal:        1887.50 ave        2000 max        1600 min
Histogram: 4 0 0 0 0 0 0 56 0 4
Nghost:        5147.12 ave        5315 max        4353 min
Histogram: 4 0 0 4 0 0 0 16 4 36
Neighs:         0.00000 ave           0 max           0 min
Histogram: 64 0 0 0 0 0 0 0 0 0
FullNghs:      315025.0 ave      336000 max      252200 min
Histogram: 4 0 0 0 0 0 4 52 0 4

Total # of neighbors = 20161600
Ave neighs/atom = 166.90066
Neighbor list builds = 0
Dangerous builds = 0
WARNING: Using 'neigh_modify every 1 delay 0 check yes' setting during minimization (../min.cpp:188)
Setting up cg/kk style minimization ...
  Unit style    : metal
  Current step  : 132
Per MPI rank memory allocation (min/avg/max) = 2.333 | 2.508 | 2.547 Mbytes
Time Step Lx Pxx Pxy Pxz Ly Lz Pyy Pzz Pyz TotEng Temp Volume 
       0.132      132    436.86457 0.00012788016 -4.1134145e-10 -2.105483e-10     57.10648     57.10648    -931.8563    -931.8563 -4.4144472e-13    -497263.4            0    1424680.9 
       0.133      133    436.86457 0.00011764257 -3.8808794e-10 -1.9938828e-10     57.10648     57.10648   -931.85631   -931.85631 1.3024288e-12    -497263.4            0    1424680.9 
Loop time of 0.22646 on 64 procs for 1 steps with 120800 atoms

85.5% CPU use with 64 MPI tasks x 1 OpenMP threads

Minimization stats:
  Stopping criterion = energy tolerance
  Energy initial, next-to-last, final = 
     -497263.401315488  -497263.401315488  -497263.401315488
  Force two-norm initial, final = 1.4110898e-05 1.0281046e-05
  Force max component initial, final = 1.9164882e-07 1.2917664e-07
  Final line search alpha, max atom move = 1.0000000 1.2917664e-07
  Iterations, force evaluations = 1 2

MPI task timing breakdown:
Section |  min time  |  avg time  |  max time  |%varavg| %total
---------------------------------------------------------------
Pair    | 0.069923   | 0.10793    | 0.15486    |   6.5 | 47.66
Neigh   | 0          | 0          | 0          |   0.0 |  0.00
Comm    | 0.032808   | 0.075732   | 0.10739    |   9.2 | 33.44
Output  | 0          | 0          | 0          |   0.0 |  0.00
Modify  | 0          | 0          | 0          |   0.0 |  0.00
Other   |            | 0.04279    |            |       | 18.90

Nlocal:        1887.50 ave        2012 max        1592 min
Histogram: 4 0 0 0 0 0 2 54 0 4
Nghost:        5147.12 ave        5330 max        4350 min
Histogram: 4 0 0 4 0 0 0 16 4 36
Neighs:         0.00000 ave           0 max           0 min
Histogram: 64 0 0 0 0 0 0 0 0 0
FullNghs:      315025.0 ave      338016 max      250465 min
Histogram: 4 0 0 0 0 4 0 46 6 4

Total # of neighbors = 20161600
Ave neighs/atom = 166.90066
Neighbor list builds = 0
Dangerous builds = 0
436.864572 57.10648 0.000117642571104019 1.02375897546571e-05 0 0.133 0
436.864572 57.10648 0.000117642571104019 1.02375897546571e-05 0 0.133 0
System init for write_data ...
Setting up Verlet run ...
  Unit style    : metal
  Current step  : 133
  Time step     : 0.001
Per MPI rank memory allocation (min/avg/max) = 1.901 | 2.023 | 2.050 Mbytes
Time Step Lx Pxx Pxy Pxz Ly Lz Pyy Pzz Pyz TotEng Temp Volume 
           0      133    436.86457 0.00011764257 -3.8819439e-10 -1.9925443e-10     57.10648     57.10648   -931.85631   -931.85631 7.4883891e-13    -497263.4            0    1424680.9 
       0.001      134    436.90826 0.00011762866 -3.8751343e-10 -1.997047e-10     57.10648     57.10648   -931.76314   -931.76314 -4.8526032e-13    -497263.4 5.841967e-16    1424823.4 
Loop time of 0.063771 on 64 procs for 1 steps with 120800 atoms

Performance: 1.355 ns/day, 17.714 hours/ns, 15.681 timesteps/s
86.3% CPU use with 64 MPI tasks x 1 OpenMP threads

MPI task timing breakdown:
Section |  min time  |  avg time  |  max time  |%varavg| %total
---------------------------------------------------------------
Pair    | 0.02799    | 0.032644   | 0.039698   |   1.4 | 51.19
Neigh   | 0          | 0          | 0          |   0.0 |  0.00
Comm    | 0.013166   | 0.016838   | 0.022177   |   2.0 | 26.40
Output  | 0.0036171  | 0.0056871  | 0.0082117  |   1.6 |  8.92
Modify  | 0.0027006  | 0.004984   | 0.0070635  |   1.7 |  7.82
Other   |            | 0.003618   |            |       |  5.67

Nlocal:        1887.50 ave        2009 max        1595 min
Histogram: 4 0 0 0 0 0 0 56 0 4
Nghost:        5147.12 ave        5325 max        4346 min
Histogram: 4 0 0 4 0 0 0 16 3 37
Neighs:         0.00000 ave           0 max           0 min
Histogram: 64 0 0 0 0 0 0 0 0 0
FullNghs:      315025.0 ave      337512 max      251524 min
Histogram: 4 0 0 0 0 3 1 48 4 4

Total # of neighbors = 20161600
Ave neighs/atom = 166.90066
Neighbor list builds = 0
Dangerous builds = 0
436.9082584572 57.10648 0.000117628660317523 1.02515005411533e-05 9.99950003332973e-05 0.001 5.84196703665292e-16
run 1 end
WARNING: Using 'neigh_modify every 1 delay 0 check yes' setting during minimization (../min.cpp:188)
Setting up cg/kk style minimization ...
  Unit style    : metal
  Current step  : 134
Per MPI rank memory allocation (min/avg/max) = 2.333 | 2.508 | 2.547 Mbytes
Time Step Lx Pxx Pxy Pxz Ly Lz Pyy Pzz Pyz TotEng Temp Volume 
       0.001      134    436.90826   -239.09487 -3.8803012e-10 -1.9991742e-10     57.10648     57.10648   -1074.4569   -1074.4569 -8.7620686e-14   -497263.39 5.841967e-16    1424823.4 
       0.002      135    436.90826    -236.6764 -3.3014599e-10 -1.7496882e-10     57.10648     57.10648   -1072.6948   -1072.6948 -7.1093285e-14   -497263.39 5.841967e-16    1424823.4 
       0.003      136    436.90826   -234.22448 -1.9428773e-10 -1.2830435e-10     57.10648     57.10648   -1071.3113   -1071.3113 -4.8632992e-12   -497263.39 5.841967e-16    1424823.4 
       0.004      137    436.90826   -231.80151 3.2240014e-10 -7.0351067e-12     57.10648     57.10648   -1069.8305   -1069.8305 -4.359372e-11   -497263.39 5.841967e-16    1424823.4 
       0.005      138    436.90826   -229.40736 4.8581246e-09 8.1377208e-10     57.10648     57.10648   -1068.4246   -1068.4246 -4.4451975e-10   -497263.39 5.841967e-16    1424823.4 
       0.006      139    436.90826   -227.04623 5.0851947e-08 8.7698656e-09     57.10648     57.10648   -1067.0106   -1067.0106 -4.2053027e-09   -497263.39 5.841967e-16    1424823.4 
       0.007      140    436.90826   -224.75459 4.5372063e-07 7.8447618e-08     57.10648     57.10648    -1065.642    -1065.642 -3.3703138e-08   -497263.39 5.841967e-16    1424823.4 
       0.008      141    436.90826   -222.72313 2.2246808e-06 3.8781176e-07     57.10648     57.10648   -1064.4415   -1064.4415 -1.4565178e-07   -497263.39 5.841967e-16    1424823.4 
       0.009      142    436.90826   -220.95322 1.8828815e-06 3.3661125e-07     57.10648     57.10648   -1063.3835   -1063.3835 -9.5592113e-08   -497263.39 5.841967e-16    1424823.4 
        0.01      143    436.90826     -218.836 4.9544946e-07 1.0377801e-07     57.10648     57.10648   -1062.1136   -1062.1136 -8.3016183e-09   -497263.39 5.841967e-16    1424823.4 
       0.011      144    436.90826   -216.58231 4.0944343e-07 1.3259463e-07     57.10648     57.10648   -1060.7861   -1060.7861 -4.6665835e-08   -497263.39 5.841967e-16    1424823.4 
       0.012      145    436.90826   -214.54684 1.0389771e-06 3.9112758e-07     57.10648     57.10648   -1059.5627   -1059.5627 -2.7011396e-07   -497263.39 5.841967e-16    1424823.4 
       0.013      146    436.90826   -212.72892 7.5249746e-07 2.8017329e-07     57.10648     57.10648    -1058.477    -1058.477 -2.4223001e-07   -497263.39 5.841967e-16    1424823.4 
       0.014      147    436.90826   -210.57897 2.7115551e-07 8.712503e-08     57.10648     57.10648   -1057.2097   -1057.2097 -6.43528e-08   -497263.39 5.841967e-16    1424823.4 
       0.015      148    436.90826   -208.40426 4.4829039e-07 1.4699064e-07     57.10648     57.10648   -1055.9021   -1055.9021 4.9593197e-08   -497263.39 5.841967e-16    1424823.4 
       0.016      149    436.90826   -206.55011 7.3412704e-07 2.7253284e-07     57.10648     57.10648   -1054.7989   -1054.7989 1.1234965e-07   -497263.39 5.841967e-16    1424823.4 
       0.017      150    436.90826   -204.53597 3.8881697e-07 1.3640436e-07     57.10648     57.10648   -1053.6088   -1053.6088 -5.0285857e-10   -497263.39 5.841967e-16    1424823.4 
       0.018      151    436.90826   -202.34318 3.9766865e-07 2.6438512e-08     57.10648     57.10648    -1052.292    -1052.292 -4.591058e-08   -497263.39 5.841967e-16    1424823.4 
       0.019      152    436.90826   -200.40613 6.3614656e-07 -1.2794042e-07     57.10648     57.10648   -1051.1405   -1051.1405 1.0248679e-08   -497263.39 5.841967e-16    1424823.4 
        0.02      153    436.90826   -198.46349 4.0336592e-07 -1.1340407e-07     57.10648     57.10648     -1049.99     -1049.99 5.046011e-08   -497263.39 5.841967e-16    1424823.4 
       0.021      154    436.90826   -196.29768 3.9701392e-07 -9.2479218e-08     57.10648     57.10648   -1048.6917   -1048.6917 -2.2055706e-08   -497263.39 5.841967e-16    1424823.4 
       0.022      155    436.90826   -194.31813 7.0936955e-07 -1.1768351e-07     57.10648     57.10648   -1047.5143   -1047.5143 -1.4929212e-07   -497263.39 5.841967e-16    1424823.4 
       0.023      156    436.90826   -192.39774 5.3625066e-07 -4.5342918e-08     57.10648     57.10648   -1046.3756   -1046.3756 -1.141539e-07   -497263.39 5.841967e-16    1424823.4 
       0.024      157    436.90826   -190.26049 4.1818219e-07  3.69194e-09     57.10648     57.10648   -1045.0967   -1045.0967 -1.3575833e-07   -497263.39 5.841967e-16    1424823.4 
       0.025      158    436.90826   -188.25193 5.7015972e-07 5.5159248e-08     57.10648     57.10648   -1043.9006   -1043.9006 -2.4849857e-07   -497263.39 5.841967e-16    1424823.4 
       0.026      159    436.90826   -186.32732 4.4998776e-07 8.7401577e-08     57.10648     57.10648   -1042.7585   -1042.7585 -1.3676314e-07   -497263.39 5.841967e-16    1424823.4 
       0.027      160    436.90826   -184.21736 3.5241253e-07 7.011729e-08     57.10648     57.10648   -1041.4981   -1041.4981 -1.1453219e-07   -497263.39 5.841967e-16    1424823.4 
       0.028      161    436.90826   -182.19289 4.6650477e-07 3.3487339e-08     57.10648     57.10648   -1040.2909   -1040.2909 -2.1824733e-07   -497263.39 5.841967e-16    1424823.4 
       0.029      162    436.90826    -180.2628 4.6071148e-07 7.1615318e-10     57.10648     57.10648    -1039.145    -1039.145 -4.8118574e-08   -497263.39 5.841967e-16    1424823.4 
        0.03      163    436.90826   -178.18545 4.5259006e-07 4.3284675e-09     57.10648     57.10648   -1037.9063   -1037.9063 9.0129704e-08   -497263.39 5.841967e-16    1424823.4 
       0.031      164    436.90826   -176.16025 5.8340494e-07 3.9521404e-08     57.10648     57.10648    -1036.697    -1036.697 -1.6945446e-08   -497263.39 5.841967e-16    1424823.4 
       0.032      165    436.90826   -174.21893 5.2009045e-07 9.6233017e-08     57.10648     57.10648   -1035.5439   -1035.5439 -1.6535161e-07   -497263.39 5.841967e-16    1424823.4 
       0.033      166    436.90826   -172.16087 4.5243794e-07 1.0871138e-07     57.10648     57.10648   -1034.3186   -1034.3186 -2.3923472e-07   -497263.39 5.841967e-16    1424823.4 
       0.034      167    436.90826   -170.13076 4.9678609e-07 1.074214e-07     57.10648     57.10648   -1033.1051   -1033.1051 -3.5768352e-07   -497263.39 5.841967e-16    1424823.4 
       0.035      168    436.90826   -168.17662 3.4953903e-07 1.229618e-07     57.10648     57.10648   -1031.9438   -1031.9438 -2.316415e-07   -497263.39 5.841967e-16    1424823.4 
       0.036      169    436.90826   -166.12519 2.5045164e-07 1.5984321e-07     57.10648     57.10648   -1030.7241   -1030.7241 -6.4451032e-08   -497263.39 5.841967e-16    1424823.4 
       0.037      170    436.90826   -164.08528 3.1806904e-07 2.0381802e-07     57.10648     57.10648   -1029.5039   -1029.5039 -6.6894103e-08   -497263.39 5.841967e-16    1424823.4 
       0.038      171    436.90826   -162.13256 2.5181084e-07 1.5027284e-07     57.10648     57.10648   -1028.3427   -1028.3427 -3.1656158e-08   -497263.39 5.841967e-16    1424823.4 
       0.039      172    436.90826   -160.08852 1.4388262e-07 4.3115382e-08     57.10648     57.10648   -1027.1287   -1027.1287 -1.0880933e-08   -497263.39 5.841967e-16    1424823.4 
        0.04      173    436.90826   -158.03325 1.8891076e-07 -5.7328144e-09     57.10648     57.10648    -1025.899    -1025.899 -1.4559666e-07   -497263.39 5.841967e-16    1424823.4 
       0.041      174    436.90826   -156.07914 2.3721983e-07 3.7009428e-08     57.10648     57.10648   -1024.7361   -1024.7361 -1.7763572e-07   -497263.39 5.841967e-16    1424823.4 
       0.042      175    436.90826   -154.04979 2.5552421e-07 5.7260003e-08     57.10648     57.10648   -1023.5317   -1023.5317 -7.8926949e-08   -497263.39 5.841967e-16    1424823.4 
       0.043      176    436.90826    -152.0042 4.0144402e-07 1.8096462e-09     57.10648     57.10648   -1022.3081   -1022.3081 -1.8131485e-07   -497263.39 5.841967e-16    1424823.4 
       0.044      177    436.90826   -150.05042 4.4080825e-07 -1.3776428e-08     57.10648     57.10648   -1021.1443   -1021.1443 -2.6459421e-07   -497263.39 5.841967e-16    1424823.4 
       0.045      178    436.90826    -148.0081 3.6204461e-07 3.0076275e-08     57.10648     57.10648   -1019.9328   -1019.9328 -1.795836e-07   -497263.39 5.841967e-16    1424823.4 
       0.046      179    436.90826   -145.96408 4.757561e-07 1.7313093e-08     57.10648     57.10648   -1018.7106   -1018.7106 -2.373885e-07   -497263.39 5.841967e-16    1424823.4 
       0.047      180    436.90826   -144.01682 5.253887e-07 -1.6460095e-08     57.10648     57.10648   -1017.5498   -1017.5498 -2.7513954e-07   -497263.39 5.841967e-16    1424823.4 
       0.048      181    436.90826   -141.96949 4.8641862e-07 3.1655657e-09     57.10648     57.10648   -1016.3354   -1016.3354 -1.5799464e-07    -497263.4 5.841967e-16    1424823.4 
       0.049      182    436.90826   -139.93369 6.1912142e-07 -7.9870579e-09     57.10648     57.10648   -1015.1191   -1015.1191 -4.9896496e-08    -497263.4 5.841967e-16    1424823.4 
        0.05      183    436.90826   -137.98071 5.6513264e-07 -5.6330892e-08     57.10648     57.10648   -1013.9539   -1013.9539 5.9925479e-08    -497263.4 5.841967e-16    1424823.4 
       0.051      184    436.90826   -135.92039 5.203868e-07 -6.4941957e-08     57.10648     57.10648   -1012.7316   -1012.7316 7.9339216e-08    -497263.4 5.841967e-16    1424823.4 
       0.052      185    436.90826   -133.89843 7.0831674e-07 -7.783814e-08     57.10648     57.10648   -1011.5246   -1011.5246 -8.5051746e-09    -497263.4 5.841967e-16    1424823.4 
       0.053      186    436.90826   -131.94761  5.93815e-07 -4.7891515e-08     57.10648     57.10648     -1010.36     -1010.36 -1.4569335e-07    -497263.4 5.841967e-16    1424823.4 
       0.054      187    436.90826   -129.88507 4.9115255e-07 2.0311638e-08     57.10648     57.10648   -1009.1359   -1009.1359 -2.9977879e-07    -497263.4 5.841967e-16    1424823.4 
       0.055      188    436.90826   -127.87682 6.0692977e-07 4.6843214e-08     57.10648     57.10648   -1007.9382   -1007.9382 -4.7345422e-07    -497263.4 5.841967e-16    1424823.4 
       0.056      189    436.90826   -125.90857 4.9609074e-07 7.283366e-09     57.10648     57.10648   -1006.7627   -1006.7627 -3.0625491e-07    -497263.4 5.841967e-16    1424823.4 
       0.057      190    436.90826   -123.83839 4.7913989e-07 2.756154e-08     57.10648     57.10648   -1005.5334   -1005.5334 -9.1318813e-08    -497263.4 5.841967e-16    1424823.4 
       0.058      191    436.90826   -121.84294 6.2135748e-07 1.1040907e-07     57.10648     57.10648   -1004.3443   -1004.3443 1.458004e-08    -497263.4 5.841967e-16    1424823.4 
       0.059      192    436.90826   -119.85786 4.6324572e-07 1.1019667e-07     57.10648     57.10648   -1003.1586   -1003.1586 1.6527297e-08    -497263.4 5.841967e-16    1424823.4 
        0.06      193    436.90826   -117.78637 4.2152383e-07 1.0669182e-07     57.10648     57.10648   -1001.9277   -1001.9277 -9.8099225e-08    -497263.4 5.841967e-16    1424823.4 
       0.061      194    436.90826   -115.81022 5.6733934e-07 1.6245504e-07     57.10648     57.10648   -1000.7511   -1000.7511 -1.8997355e-07    -497263.4 5.841967e-16    1424823.4 
       0.062      195    436.90826    -113.8162 4.6396421e-07 1.3373856e-07     57.10648     57.10648   -999.56005   -999.56005 -9.4650663e-08    -497263.4 5.841967e-16    1424823.4 
       0.063      196    436.90826   -111.74564 4.3694972e-07 6.7568829e-08     57.10648     57.10648   -998.32872   -998.32872 -8.4034243e-08    -497263.4 5.841967e-16    1424823.4 
       0.064      197    436.90826   -109.77658 5.2571383e-07 3.0993734e-08     57.10648     57.10648    -997.1571    -997.1571 -1.6335275e-07    -497263.4 5.841967e-16    1424823.4 
       0.065      198    436.90826   -107.77308 4.6335019e-07 1.1977874e-08     57.10648     57.10648   -995.96074   -995.96074 -1.7510469e-07    -497263.4 5.841967e-16    1424823.4 
       0.066      199    436.90826    -105.7136 5.0483507e-07 -1.0556728e-08     57.10648     57.10648   -994.73491   -994.73491 -2.6808522e-07    -497263.4 5.841967e-16    1424823.4 
       0.067      200    436.90826   -103.75365 5.7935274e-07 3.5216431e-08     57.10648     57.10648   -993.56935   -993.56935 -3.428514e-07    -497263.4 5.841967e-16    1424823.4 
       0.068      201    436.90826   -101.73702 4.9652202e-07 8.7829885e-08     57.10648     57.10648   -992.36574   -992.36574 -2.5374308e-07    -497263.4 5.841967e-16    1424823.4 
       0.069      202    436.90826   -99.678556 5.3001034e-07 7.9667558e-08     57.10648     57.10648   -991.13937   -991.13937 -2.1259991e-07    -497263.4 5.841967e-16    1424823.4 
        0.07      203    436.90826   -97.717896 5.3424271e-07 7.068164e-08     57.10648     57.10648    -989.9738    -989.9738 -6.8378638e-08    -497263.4 5.841967e-16    1424823.4 
       0.071      204    436.90826   -95.697619 4.3940944e-07 7.0237411e-08     57.10648     57.10648   -988.76881   -988.76881 8.0903841e-08    -497263.4 5.841967e-16    1424823.4 
       0.072      205    436.90826   -93.643122 5.1537006e-07 4.4081641e-08     57.10648     57.10648   -987.54369   -987.54369 6.5080134e-08    -497263.4 5.841967e-16    1424823.4 
       0.073      206    436.90826   -91.676924 5.6069793e-07 3.6766885e-08     57.10648     57.10648   -986.37502   -986.37502 2.5909109e-08    -497263.4 5.841967e-16    1424823.4 
       0.074      207    436.90826   -89.655998 4.7190554e-07 5.8159919e-08     57.10648     57.10648   -985.17055   -985.17055 -2.3436871e-08    -497263.4 5.841967e-16    1424823.4 
       0.075      208    436.90826   -87.607221 4.936155e-07 5.5087946e-08     57.10648     57.10648   -983.94787   -983.94787 -2.5979946e-07    -497263.4 5.841967e-16    1424823.4 
       0.076      209    436.90826   -85.642768 4.5656084e-07 7.8334739e-08     57.10648     57.10648   -982.78018   -982.78018 -3.9020111e-07    -497263.4 5.841967e-16    1424823.4 
       0.077      210    436.90826   -83.626527 3.7100457e-07 1.3322861e-07     57.10648     57.10648    -981.5795    -981.5795 -1.4730507e-07    -497263.4 5.841967e-16    1424823.4 
       0.078      211    436.90826   -81.579025 4.474795e-07 1.6396494e-07     57.10648     57.10648   -980.35679   -980.35679 2.8457253e-08    -497263.4 5.841967e-16    1424823.4 
       0.079      212    436.90826   -79.610113 4.6339918e-07 1.2969707e-07     57.10648     57.10648   -979.18616   -979.18616 5.7667551e-08    -497263.4 5.841967e-16    1424823.4 
        0.08      213    436.90826   -77.590315 3.8791792e-07 5.1293995e-08     57.10648     57.10648   -977.98433   -977.98432 5.3962089e-08    -497263.4 5.841967e-16    1424823.4 
       0.081      214    436.90826   -75.532629 4.5500012e-07 -4.5290795e-09     57.10648     57.10648   -976.75501   -976.75501 -3.8006155e-10    -497263.4 5.841967e-16    1424823.4 
       0.082      215    436.90826   -73.560933 4.4491975e-07 -1.7736227e-08     57.10648     57.10648   -975.58233   -975.58233 -1.0299073e-07    -497263.4 5.841967e-16    1424823.4 
       0.083      216    436.90826   -71.549484 3.5179136e-07 -2.8309408e-08     57.10648     57.10648   -974.38622   -974.38622 -1.0713343e-07    -497263.4 5.841967e-16    1424823.4 
       0.084      217    436.90826   -69.494245 4.5351509e-07  -5.2192e-08     57.10648     57.10648   -973.15819   -973.15819 -7.410787e-08    -497263.4 5.841967e-16    1424823.4 
       0.085      218    436.90826   -67.527812 4.805792e-07 1.432799e-08     57.10648     57.10648   -971.98804   -971.98804 -2.9866723e-08    -497263.4 5.841967e-16    1424823.4 
       0.086      219    436.90826   -65.514482 3.6970421e-07 7.1079146e-08     57.10648     57.10648   -970.79143   -970.79143 -3.78016e-08    -497263.4 5.841967e-16    1424823.4 
       0.087      220    436.90826   -63.451589 4.5260833e-07 2.5549361e-08     57.10648     57.10648   -969.55893   -969.55893 -1.5856632e-07    -497263.4 5.841967e-16    1424823.4 
       0.088      221    436.90826   -61.486695 4.3473897e-07 -1.8781548e-09     57.10648     57.10648   -968.38907   -968.38907 -2.4279356e-07    -497263.4 5.841967e-16    1424823.4 
       0.089      222    436.90826   -59.478532 2.9384327e-07 6.0824778e-09     57.10648     57.10648   -967.19588   -967.19588 -1.8442587e-07    -497263.4 5.841967e-16    1424823.4 
        0.09      223    436.90826   -57.419443 3.5913777e-07 -3.0861478e-08     57.10648     57.10648    -965.9661    -965.9661 -1.8313961e-07    -497263.4 5.841967e-16    1424823.4 
       0.091      224    436.90826   -55.446741 2.4286231e-07  3.06514e-09     57.10648     57.10648   -964.79083   -964.79083 -9.6477016e-08    -497263.4 5.841967e-16    1424823.4 
       0.092      225    436.90826   -53.430091 5.2403978e-08 2.6075776e-08     57.10648     57.10648   -963.59275   -963.59275 6.8377021e-08    -497263.4 5.841967e-16    1424823.4 
       0.093      226    436.90826   -51.382458 1.4262953e-07 -9.2645064e-08     57.10648     57.10648   -962.37045   -962.37045 1.1466917e-07    -497263.4 5.841967e-16    1424823.4 
       0.094      227    436.90826   -49.404718 7.3197432e-08 -1.1531972e-07     57.10648     57.10648   -961.19142   -961.19142 4.9417693e-08    -497263.4 5.841967e-16    1424823.4 
       0.095      228    436.90826   -47.374055 -7.4227818e-08 -1.36685e-08     57.10648     57.10648     -959.985     -959.985 -7.9313431e-08    -497263.4 5.841967e-16    1424823.4 
       0.096      229    436.90826   -45.343932 9.915046e-08 -2.2271637e-08     57.10648     57.10648   -958.77388   -958.77388 -2.1249998e-07    -497263.4 5.841967e-16    1424823.4 
       0.097      230    436.90826   -43.366405 1.9203134e-07 -3.0642673e-08     57.10648     57.10648   -957.59431   -957.59431 -1.3589424e-07    -497263.4 5.841967e-16    1424823.4 
       0.098      231    436.90826   -41.324313 1.4985519e-07 -1.2899246e-08     57.10648     57.10648   -956.38093   -956.38093 -3.1361351e-09    -497263.4 5.841967e-16    1424823.4 
       0.099      232    436.90826   -39.323496 3.0561442e-07 -7.1840397e-08     57.10648     57.10648   -955.18807   -955.18807 -7.8432903e-09    -497263.4 5.841967e-16    1424823.4 
         0.1      233    436.90826   -37.350071 2.7585145e-07 -5.0045498e-08     57.10648     57.10648   -954.01043   -954.01043 2.8699274e-08    -497263.4 5.841967e-16    1424823.4 
       0.101      234    436.90826   -35.289385 2.0186315e-07 1.6054431e-08     57.10648     57.10648   -952.78561   -952.78561 1.1405668e-07    -497263.4 5.841967e-16    1424823.4 
       0.102      235    436.90826   -33.302885 3.0802097e-07 -4.4208128e-09     57.10648     57.10648   -951.60205   -951.60204 1.1196372e-07    -497263.4 5.841967e-16    1424823.4 
       0.103      236    436.90826   -31.321353 2.2197393e-07 -2.0775122e-08     57.10648     57.10648   -950.41937   -950.41937 6.5716809e-08    -497263.4 5.841967e-16    1424823.4 
       0.104      237    436.90826   -29.238211 1.9217269e-07 -5.6756488e-09     57.10648     57.10648   -949.18063   -949.18063 6.7335938e-08    -497263.4 5.841967e-16    1424823.4 
       0.105      238    436.90826   -27.260116 3.5980641e-07 -2.2889013e-08     57.10648     57.10648   -948.00266   -948.00266 2.7909074e-08    -497263.4 5.841967e-16    1424823.4 
       0.106      239    436.90826   -25.290362 3.1055898e-07 -2.9204988e-08     57.10648     57.10648   -946.82712   -946.82712 -1.4597111e-08    -497263.4 5.841967e-16    1424823.4 
       0.107      240    436.90826   -23.197318 3.0686467e-07 -3.6390762e-08     57.10648     57.10648   -945.58165   -945.58164 5.1586788e-08    -497263.4 5.841967e-16    1424823.4 
       0.108      241    436.90826   -21.203292 4.162283e-07 -4.1162753e-08     57.10648     57.10648    -944.3948    -944.3948 2.0882393e-07    -497263.4 5.841967e-16    1424823.4 
       0.109      242    436.90826   -19.247066 2.7403097e-07 -2.2058179e-08     57.10648     57.10648    -943.2276    -943.2276 1.5647242e-07    -497263.4 5.841967e-16    1424823.4 
        0.11      243    436.90826    -17.17544 2.5506289e-07 -4.4001417e-08     57.10648     57.10648   -941.99391   -941.99391 -6.7813952e-08    -497263.4 5.841967e-16    1424823.4 
       0.111      244    436.90826   -15.157657 3.9633503e-07 -1.9926276e-08     57.10648     57.10648   -940.79363   -940.79363 -1.9588077e-07    -497263.4 5.841967e-16    1424823.4 
       0.112      245    436.90826   -13.183256 3.4679158e-07 5.7002856e-08     57.10648     57.10648   -939.61584   -939.61584 -7.0941577e-08    -497263.4 5.841967e-16    1424823.4 
       0.113      246    436.90826   -11.164217 2.7798602e-07 -3.5867276e-09     57.10648     57.10648   -938.41269   -938.41269 -1.4078576e-08    -497263.4 5.841967e-16    1424823.4 
       0.114      247    436.90826   -9.1644769 1.9411534e-07 -5.7847852e-08     57.10648     57.10648   -937.22356   -937.22356 -6.0993817e-08    -497263.4 5.841967e-16    1424823.4 
       0.115      248    436.90826   -7.1385841 7.0047287e-08 2.284198e-08     57.10648     57.10648   -936.01549   -936.01549 -5.8908232e-08    -497263.4 5.841967e-16    1424823.4 
       0.116      249    436.90826   -5.1594084 1.5429749e-07 5.0010313e-08     57.10648     57.10648    -934.8355    -934.8355 -1.3585618e-07    -497263.4 5.841967e-16    1424823.4 
       0.117      250    436.90826   -3.3883851 1.5702265e-07 3.2829041e-08     57.10648     57.10648   -933.78244   -933.78244 -2.237808e-07    -497263.4 5.841967e-16    1424823.4 
       0.118      251    436.90826   -1.8303339 -5.0132221e-08 6.2933793e-08     57.10648     57.10648   -932.85398   -932.85398 -1.2867458e-07    -497263.4 5.841967e-16    1424823.4 
       0.119      252    436.90826  -0.72378015 -9.0509012e-08 6.2551968e-08     57.10648     57.10648   -932.19343   -932.19343 -5.3167736e-08    -497263.4 5.841967e-16    1424823.4 
        0.12      253    436.90826   -0.1769831 -1.0772966e-07 5.6255701e-08     57.10648     57.10648   -931.86889   -931.86889 -1.6308675e-08    -497263.4 5.841967e-16    1424823.4 
       0.121      254    436.90826  0.025569206 -1.4320061e-07 5.3124276e-08     57.10648     57.10648    -931.7482    -931.7482 -2.5214314e-09    -497263.4 5.841967e-16    1424823.4 
       0.122      255    436.90826  0.079910262 -1.5419171e-07 4.8420717e-08     57.10648     57.10648   -931.71544   -931.71544 -1.2299741e-09    -497263.4 5.841967e-16    1424823.4 
       0.123      256    436.90826  0.090982105 -1.5858902e-07 4.6342497e-08     57.10648     57.10648   -931.70898   -931.70898 -3.6378221e-10    -497263.4 5.841967e-16    1424823.4 
       0.124      257    436.90826  0.092929596 -1.5934516e-07 4.5501618e-08     57.10648     57.10648   -931.70786   -931.70786 -4.410653e-11    -497263.4 5.841967e-16    1424823.4 
       0.125      258    436.90826  0.093186891 -1.5900141e-07 4.4998084e-08     57.10648     57.10648   -931.70768   -931.70768 -5.6408663e-12    -497263.4 5.841967e-16    1424823.4 
       0.126      259    436.90826  0.093211724 -1.5854575e-07 4.4619662e-08     57.10648     57.10648   -931.70766   -931.70766 -1.6596299e-12    -497263.4 5.841967e-16    1424823.4 
       0.127      260    436.90826  0.093208441 -1.5808343e-07 4.428986e-08     57.10648     57.10648   -931.70767   -931.70767 1.058199e-13    -497263.4 5.841967e-16    1424823.4 
       0.128      261    436.90826  0.093201953 -1.5760957e-07  4.39596e-08     57.10648     57.10648   -931.70767   -931.70767 5.3075121e-13    -497263.4 5.841967e-16    1424823.4 
       0.129      262    436.90826  0.093187063 -1.5658946e-07 4.3262259e-08     57.10648     57.10648   -931.70768   -931.70768 8.8545723e-13    -497263.4 5.841967e-16    1424823.4 
Loop time of 15.4488 on 64 procs for 128 steps with 120800 atoms

85.9% CPU use with 64 MPI tasks x 1 OpenMP threads

Minimization stats:
  Stopping criterion = energy tolerance
  Energy initial, next-to-last, final = 
     -497263.390685596  -497263.401315486  -497263.401315486
  Force two-norm initial, final = 0.028977099 9.9880402e-06
  Force max component initial, final = 0.00099978977 1.3733801e-07
  Final line search alpha, max atom move = 1.0000000 1.3733801e-07
  Iterations, force evaluations = 128 256

MPI task timing breakdown:
Section |  min time  |  avg time  |  max time  |%varavg| %total
---------------------------------------------------------------
Pair    | 6.7672     | 8.1782     | 9.4066     |  26.6 | 52.94
Neigh   | 0          | 0          | 0          |   0.0 |  0.00
Comm    | 3.2521     | 3.9331     | 5.7573     |  37.5 | 25.46
Output  | 0.4681     | 0.4698     | 0.47277    |   0.1 |  3.04
Modify  | 0          | 0          | 0          |   0.0 |  0.00
Other   |            | 2.868      |            |       | 18.56

Nlocal:        1887.50 ave        2009 max        1595 min
Histogram: 4 0 0 0 0 0 0 56 0 4
Nghost:        5147.12 ave        5326 max        4346 min
Histogram: 4 0 0 4 0 0 0 16 3 37
Neighs:         0.00000 ave           0 max           0 min
Histogram: 64 0 0 0 0 0 0 0 0 0
FullNghs:      315025.0 ave      337512 max      251524 min
Histogram: 4 0 0 0 0 3 1 48 4 4

Total # of neighbors = 20161600
Ave neighs/atom = 166.90066
Neighbor list builds = 0
Dangerous builds = 0
436.9082584572 57.10648 0.0931870625953348 0.0930591824344761 9.99950003332973e-05 0.129 5.84196703665292e-16
minimize end
  using 1 OpenMP thread(s) per MPI task
Reading data file ...
  orthogonal box = (0.0000000 0.0000000 0.0000000) to (436.86457 57.106480 57.106480)
  16 by 2 by 2 MPI processor grid
  reading atoms ...
  120800 atoms
  reading velocities ...
  120800 velocities
  read_data CPU = 0.530 seconds
800 atoms in group source
800 atoms in group detector
0 atoms in group edge
0 atoms in group edge_buf
0 atoms in group buffer
WARNING: Using 'neigh_modify every 1 delay 0 check yes' setting during minimization (../min.cpp:188)
Neighbor list info ...
  update every 1 steps, delay 0 steps, check yes
  max neighbors/atom: 2000, page size: 100000
  master list distance cutoff = 7.6
  ghost atom cutoff = 7.6
  binsize = 7.6, bins = 58 8 8
  1 neighbor lists, perpetual/occasional/extra = 1 0 0
  (1) pair eam/alloy/kk, perpetual
      attributes: full, newton off, kokkos_device
      pair build: full/bin/kk/device
      stencil: full/bin/3d
      bin: kk/device
Setting up cg/kk style minimization ...
  Unit style    : metal
  Current step  : 0
Per MPI rank memory allocation (min/avg/max) = 2.301 | 2.470 | 2.508 Mbytes
Time Step Lx Pxx Pxy Pxz Ly Lz Pyy Pzz Pyz TotEng Temp Volume 
           0        0    436.86457 0.00011764257 -3.8816259e-10 -1.9926352e-10     57.10648     57.10648   -931.85631   -931.85631 7.9359482e-13    -497263.4            0    1424680.9 
       0.001        1    436.86457 0.00011550673 -3.6982356e-10 -1.9224545e-10     57.10648     57.10648   -931.85631   -931.85631 3.0056663e-14    -497263.4            0    1424680.9 
Loop time of 0.295571 on 64 procs for 1 steps with 120800 atoms

87.4% CPU use with 64 MPI tasks x 1 OpenMP threads

Minimization stats:
  Stopping criterion = energy tolerance
  Energy initial, next-to-last, final = 
     -497263.401315488  -497263.401315488  -497263.401315488
  Force two-norm initial, final = 1.0281046e-05 8.1006395e-06
  Force max component initial, final = 1.2917664e-07 1.0472739e-07
  Final line search alpha, max atom move = 1.0000000 1.0472739e-07
  Iterations, force evaluations = 1 2

MPI task timing breakdown:
Section |  min time  |  avg time  |  max time  |%varavg| %total
---------------------------------------------------------------
Pair    | 0.082414   | 0.13353    | 0.20273    |  10.8 | 45.18
Neigh   | 0          | 0          | 0          |   0.0 |  0.00
Comm    | 0.045022   | 0.11574    | 0.17359    |  13.7 | 39.16
Output  | 0          | 0          | 0          |   0.0 |  0.00
Modify  | 0          | 0          | 0          |   0.0 |  0.00
Other   |            | 0.0463     |            |       | 15.67

Nlocal:        1887.50 ave        2009 max        1595 min
Histogram: 4 0 0 0 0 0 0 56 0 4
Nghost:        5147.12 ave        5325 max        4346 min
Histogram: 4 0 0 4 0 0 0 16 3 37
Neighs:         0.00000 ave           0 max           0 min
Histogram: 64 0 0 0 0 0 0 0 0 0
FullNghs:      315025.0 ave      337512 max      251524 min
Histogram: 4 0 0 0 0 3 1 48 4 4

Total # of neighbors = 20161600
Ave neighs/atom = 166.90066
Neighbor list builds = 0
Dangerous builds = 0
Setting up Verlet run ...
  Unit style    : metal
  Current step  : 1
  Time step     : 0.001
Per MPI rank memory allocation (min/avg/max) = 1.901 | 2.023 | 2.050 Mbytes
Time Step Lx Pxx Pxy Pxz Ly Lz Pyy Pzz Pyz TotEng Temp Volume 
           0        1    436.86457 0.00011550673 -3.6979345e-10 -1.9228005e-10     57.10648     57.10648   -931.85631   -931.85631 6.5823846e-14    -497263.4            0    1424680.9 
       0.001        2    436.95194 0.00011548298 -3.70077e-10 -1.9265118e-10     57.10648     57.10648   -931.66998   -931.66998 1.3566965e-13    -497263.4 3.6270937e-16    1424965.9 
Loop time of 0.06373 on 64 procs for 1 steps with 120800 atoms

Performance: 1.356 ns/day, 17.703 hours/ns, 15.691 timesteps/s
79.4% CPU use with 64 MPI tasks x 1 OpenMP threads

MPI task timing breakdown:
Section |  min time  |  avg time  |  max time  |%varavg| %total
---------------------------------------------------------------
Pair    | 0.028967   | 0.035834   | 0.041849   |   1.8 | 56.23
Neigh   | 0          | 0          | 0          |   0.0 |  0.00
Comm    | 0.013133   | 0.013949   | 0.015274   |   0.4 | 21.89
Output  | 0.0036247  | 0.0064257  | 0.012435   |   2.7 | 10.08
Modify  | 0.0016016  | 0.0037133  | 0.0051993  |   1.4 |  5.83
Other   |            | 0.003808   |            |       |  5.97

Nlocal:        1887.50 ave        2005 max        1596 min
Histogram: 4 0 0 0 0 0 1 55 0 4
Nghost:        5147.12 ave        5325 max        4342 min
Histogram: 4 0 0 4 0 0 0 16 4 36
Neighs:         0.00000 ave           0 max           0 min
Histogram: 64 0 0 0 0 0 0 0 0 0
FullNghs:      315025.0 ave      336840 max      251224 min
Histogram: 4 0 0 0 0 2 2 34 18 4

Total # of neighbors = 20161600
Ave neighs/atom = 166.90066
Neighbor list builds = 0
Dangerous builds = 0
436.9519449144 57.10648 0.000115482977596596 2.37524261996843e-08 0.000199980002666245 0.001 3.62709370803795e-16
run 1 end
WARNING: Using 'neigh_modify every 1 delay 0 check yes' setting during minimization (../min.cpp:188)
Setting up cg/kk style minimization ...
  Unit style    : metal
  Current step  : 2
Per MPI rank memory allocation (min/avg/max) = 2.333 | 2.508 | 2.547 Mbytes
Time Step Lx Pxx Pxy Pxz Ly Lz Pyy Pzz Pyz TotEng Temp Volume 
       0.001        2    436.95194   -478.25088 -3.6995279e-10 -1.9131504e-10     57.10648     57.10648   -1217.0092   -1217.0092 -1.9032069e-14   -497263.36 3.6270937e-16    1424965.9 
       0.002        3    436.95194   -473.41139 -3.1412745e-10 -1.7170163e-10     57.10648     57.10648   -1213.4841   -1213.4841 -1.1433435e-13   -497263.36 3.6270937e-16    1424965.9 
       0.003        4    436.95194    -468.5037 -1.9292377e-10 -1.2556529e-10     57.10648     57.10648   -1210.7155   -1210.7155 -2.6020601e-12   -497263.36 3.6270937e-16    1424965.9 
       0.004        5    436.95194      -463.66 2.1767125e-10 -2.2174937e-11     57.10648     57.10648   -1207.7565   -1207.7565 -2.8599291e-11   -497263.36 3.6270937e-16    1424965.9 
       0.005        6    436.95194   -458.87193 3.6337457e-09 6.1036834e-10     57.10648     57.10648   -1204.9459   -1204.9459 -2.9247015e-10   -497263.36 3.6270937e-16    1424965.9 
       0.006        7    436.95194   -454.13847 3.8330068e-08 6.6569618e-09     57.10648     57.10648   -1202.1116   -1202.1116 -2.7978344e-09   -497263.36 3.6270937e-16    1424965.9 
       0.007        8    436.95194   -449.47273 3.6741813e-07 6.4094009e-08     57.10648     57.10648   -1199.3265   -1199.3265 -2.4149988e-08   -497263.36 3.6270937e-16    1424965.9 
       0.008        9    436.95194    -444.9554 2.9736388e-06 5.2372072e-07     57.10648     57.10648   -1196.6588   -1196.6588 -1.7468757e-07   -497263.36 3.6270937e-16    1424965.9 
       0.009       10    436.95194   -441.06366 1.1217312e-05 2.0057777e-06     57.10648     57.10648   -1194.3204   -1194.3204 -5.7640881e-07   -497263.36 3.6270937e-16    1424965.9 
        0.01       11    436.95194   -437.45843 6.0564374e-06 1.1310413e-06     57.10648     57.10648   -1192.1695   -1192.1694 -2.2634142e-07   -497263.36 3.6270937e-16    1424965.9 
       0.011       12    436.95194   -433.06756 1.4307023e-06 3.411684e-07     57.10648     57.10648   -1189.5825   -1189.5825 -2.8813377e-08   -497263.36 3.6270937e-16    1424965.9 
       0.012       13    436.95194   -428.51672 1.6806772e-06 5.9627474e-07     57.10648     57.10648   -1186.8406   -1186.8406 -3.4744581e-07   -497263.36 3.6270937e-16    1424965.9 
       0.013       14    436.95194   -424.55107 4.5985871e-06 1.7336879e-06     57.10648     57.10648   -1184.4958   -1184.4958 -1.5208894e-06   -497263.36 3.6270937e-16    1424965.9 
       0.014       15    436.95194   -420.89405 2.5427268e-06 9.1717293e-07     57.10648     57.10648    -1182.329    -1182.329 -8.6867325e-07   -497263.36 3.6270937e-16    1424965.9 
       0.015       16    436.95194   -416.48605 9.548483e-07 3.1037422e-07     57.10648     57.10648   -1179.6772   -1179.6772 -1.0376029e-07   -497263.36 3.6270937e-16    1424965.9 
       0.016       17    436.95194   -412.13671 2.2484713e-06 8.309207e-07     57.10648     57.10648   -1177.1076   -1177.1076 2.8790627e-07   -497263.36 3.6270937e-16    1424965.9 
       0.017       18    436.95194   -408.48506 3.4568321e-06 1.301437e-06     57.10648     57.10648   -1174.9337   -1174.9337 2.9701238e-07   -497263.36 3.6270937e-16    1424965.9 
       0.018       19    436.95194   -404.40463 1.5142021e-06 4.0759728e-07     57.10648     57.10648   -1172.4857   -1172.4857 -8.1349286e-08   -497263.37 3.6270937e-16    1424965.9 
       0.019       20    436.95194   -399.98064 1.5389959e-06 -1.8395112e-07     57.10648     57.10648   -1169.8679   -1169.8679 -2.7144301e-08   -497263.37 3.6270937e-16    1424965.9 
        0.02       21    436.95194   -396.10636 2.7830096e-06 -8.9303158e-07     57.10648     57.10648   -1167.5586   -1167.5585 3.9409948e-07   -497263.37 3.6270937e-16    1424965.9 
       0.021       22    436.95194   -392.25117 1.7800868e-06 -5.0493817e-07     57.10648     57.10648   -1165.2513   -1165.2513 2.1249212e-07   -497263.37 3.6270937e-16    1424965.9 
       0.022       23    436.95194    -387.9005 1.6489193e-06 -2.4481105e-07     57.10648     57.10648   -1162.6717   -1162.6717 -2.197855e-07   -497263.37 3.6270937e-16    1424965.9 
       0.023       24    436.95194    -383.8846  3.07852e-06 -2.825519e-07     57.10648     57.10648   -1160.2799   -1160.2799 -7.8289234e-07   -497263.37 3.6270937e-16    1424965.9 
       0.024       25    436.95194   -380.09477 2.3594659e-06 -7.028491e-08     57.10648     57.10648   -1158.0147   -1158.0147 -5.9010442e-07   -497263.37 3.6270937e-16    1424965.9 
       0.025       26    436.95194   -375.83353 1.5279969e-06 1.3903854e-07     57.10648     57.10648    -1155.483    -1155.483 -4.400504e-07   -497263.37 3.6270937e-16    1424965.9 
       0.026       27    436.95194   -371.71566 2.1586158e-06 3.8642146e-07     57.10648     57.10648   -1153.0339   -1153.0339 -7.5080099e-07   -497263.37 3.6270937e-16    1424965.9 
       0.027       28    436.95194   -367.91316 2.0460385e-06 4.1963389e-07     57.10648     57.10648   -1150.7623   -1150.7623 -5.6222812e-07   -497263.37 3.6270937e-16    1424965.9 
       0.028       29    436.95194   -363.75572 1.4256021e-06 1.9390942e-07     57.10648     57.10648   -1148.2878   -1148.2878 -2.8449396e-07   -497263.37 3.6270937e-16    1424965.9 
       0.029       30    436.95194   -359.59342 1.9859893e-06 -2.5409481e-08     57.10648     57.10648   -1145.8161   -1145.8161 -2.7424602e-07   -497263.37 3.6270937e-16    1424965.9 
        0.03       31    436.95194   -355.76052 2.4585262e-06 -8.9525719e-08     57.10648     57.10648   -1143.5266   -1143.5266 2.043414e-07   -497263.37 3.6270937e-16    1424965.9 
       0.031       32    436.95194   -351.69828 1.9071508e-06 8.7997162e-08     57.10648     57.10648   -1141.1053   -1141.1053 3.0454183e-07   -497263.37 3.6270937e-16    1424965.9 
       0.032       33    436.95194     -347.522 2.133486e-06 3.1153179e-07     57.10648     57.10648   -1138.6285   -1138.6285 -6.1672113e-07   -497263.37 3.6270937e-16    1424965.9 
       0.033       34    436.95194    -343.6463 2.4085831e-06 5.0782869e-07     57.10648     57.10648   -1136.3136   -1136.3136 -1.5566082e-06   -497263.37 3.6270937e-16    1424965.9 
       0.034       35    436.95194   -339.63722 1.6882979e-06 4.219797e-07     57.10648     57.10648   -1133.9213   -1133.9213 -1.0072981e-06   -497263.37 3.6270937e-16    1424965.9 
       0.035       36    436.95194   -335.44262 1.4128713e-06 4.3875276e-07     57.10648     57.10648   -1131.4354   -1131.4354 -8.016503e-07   -497263.37 3.6270937e-16    1424965.9 
       0.036       37    436.95194   -331.52123 1.2575341e-06 6.8309716e-07     57.10648     57.10648   -1129.0938   -1129.0937 -6.3126234e-07   -497263.37 3.6270937e-16    1424965.9 
       0.037       38    436.95194   -327.54288 8.8905445e-07 7.0262764e-07     57.10648     57.10648   -1126.7182   -1126.7182 -3.1198198e-08   -497263.37 3.6270937e-16    1424965.9 
       0.038       39    436.95194   -323.34588 8.9150359e-07 5.6589935e-07     57.10648     57.10648   -1124.2315   -1124.2315 -3.4689237e-08   -497263.37 3.6270937e-16    1424965.9 
       0.039       40    436.95194   -319.41055 7.5072502e-07 2.6522228e-07     57.10648     57.10648   -1121.8826   -1121.8826 -3.0503529e-07   -497263.37 3.6270937e-16    1424965.9 
        0.04       41    436.95194   -315.43954 4.0392225e-07 3.4207585e-08     57.10648     57.10648   -1119.5103   -1119.5103 -2.0756374e-07   -497263.37 3.6270937e-16    1424965.9 
       0.041       42    436.95194   -311.22696 6.5075337e-07 9.4728887e-08     57.10648     57.10648    -1117.014    -1117.014 -4.8114919e-07   -497263.37 3.6270937e-16    1424965.9 
       0.042       43    436.95194   -307.29494 1.1440518e-06 2.6663638e-07     57.10648     57.10648   -1114.6682   -1114.6682 -8.3221824e-07   -497263.37 3.6270937e-16    1424965.9 
       0.043       44    436.95194   -303.35173 1.0165814e-06 1.6524396e-07     57.10648     57.10648   -1112.3121   -1112.3121 -4.0718023e-07   -497263.37 3.6270937e-16    1424965.9 
       0.044       45    436.95194   -299.14576 1.2582955e-06 -3.2931522e-08     57.10648     57.10648   -1109.8186   -1109.8186 -7.2836327e-07   -497263.37 3.6270937e-16    1424965.9 
       0.045       46    436.95194   -295.20395 1.6852518e-06 -3.4954835e-08     57.10648     57.10648   -1107.4686   -1107.4686 -1.3905785e-06   -497263.38 3.6270937e-16    1424965.9 
       0.046       47    436.95194   -291.24345 1.2343902e-06 1.049044e-07     57.10648     57.10648   -1105.1021   -1105.1021 -7.5770458e-07   -497263.38 3.6270937e-16    1424965.9 
       0.047       48    436.95194   -287.05367 1.5101454e-06 -4.2236936e-08     57.10648     57.10648   -1102.6164   -1102.6164 -7.6802932e-07   -497263.38 3.6270937e-16    1424965.9 
       0.048       49    436.95194   -283.13187 2.2122538e-06 -2.4072473e-07     57.10648     57.10648   -1100.2802   -1100.2802 -1.1611632e-06   -497263.38 3.6270937e-16    1424965.9 
       0.049       50    436.95194   -279.14877 1.6758091e-06 -1.1798909e-07     57.10648     57.10648   -1097.9003   -1097.9003 -2.7297142e-07   -497263.38 3.6270937e-16    1424965.9 
        0.05       51    436.95194   -274.96357 1.7549556e-06 -2.6955723e-07     57.10648     57.10648   -1095.4154   -1095.4154 3.5521789e-07   -497263.38 3.6270937e-16    1424965.9 
       0.051       52    436.95194    -271.0431 2.2160211e-06 -6.3210953e-07     57.10648     57.10648   -1093.0817   -1093.0817 3.4825593e-07   -497263.38 3.6270937e-16    1424965.9 
       0.052       53    436.95194   -267.04137 1.796255e-06 -4.5281564e-07     57.10648     57.10648   -1090.6912   -1090.6912 1.0672752e-07   -497263.38 3.6270937e-16    1424965.9 
       0.053       54    436.95194   -262.88819 1.9744081e-06 -3.4711688e-07     57.10648     57.10648   -1088.2231   -1088.2231 -4.9816483e-07   -497263.38 3.6270937e-16    1424965.9 
       0.054       55    436.95194   -258.98648 2.0303891e-06 -3.0857035e-07     57.10648     57.10648   -1085.9022   -1085.9022 -1.3871815e-06   -497263.38 3.6270937e-16    1424965.9 
       0.055       56    436.95194   -254.95537 1.4698519e-06 -9.1240174e-08     57.10648     57.10648    -1083.495    -1083.495 -1.3056734e-06   -497263.38 3.6270937e-16    1424965.9 
       0.056       57    436.95194   -250.80993 1.7300245e-06 -1.4381165e-07     57.10648     57.10648   -1081.0291   -1081.0291 -1.1438418e-06   -497263.38 3.6270937e-16    1424965.9 
       0.057       58    436.95194   -246.89538 1.9002991e-06 -2.8286322e-07     57.10648     57.10648   -1078.7018   -1078.7018 -5.3062706e-07   -497263.38 3.6270937e-16    1424965.9 
       0.058       59    436.95194   -242.84703 1.5043942e-06 -2.1266692e-08     57.10648     57.10648   -1076.2856   -1076.2856 2.1047694e-07   -497263.38 3.6270937e-16    1424965.9 
       0.059       60    436.95194    -238.7205 1.7243301e-06 2.3271118e-07     57.10648     57.10648   -1073.8286   -1073.8286 2.1050652e-07   -497263.38 3.6270937e-16    1424965.9 
        0.06       61    436.95194   -234.79239 1.6421311e-06  1.84964e-07     57.10648     57.10648   -1071.4941   -1071.4941 -2.3743594e-07   -497263.38 3.6270937e-16    1424965.9 
       0.061       62    436.95194   -230.74295 1.2644687e-06 1.5759587e-07     57.10648     57.10648   -1069.0788   -1069.0788 -3.9282554e-07   -497263.38 3.6270937e-16    1424965.9 
       0.062       63    436.95194   -226.65381 1.6786782e-06 2.766054e-07     57.10648     57.10648   -1066.6418   -1066.6418 -3.8620129e-07   -497263.38 3.6270937e-16    1424965.9 
       0.063       64    436.95194   -222.71551 1.6405364e-06 9.9586731e-08     57.10648     57.10648   -1064.3017   -1064.3017 -2.2618166e-07   -497263.38 3.6270937e-16    1424965.9 
       0.064       65    436.95194     -218.651 1.1550024e-06 -2.0649466e-07     57.10648     57.10648   -1061.8793   -1061.8793 -2.3867929e-07   -497263.38 3.6270937e-16    1424965.9 
       0.065       66    436.95194   -214.58129 1.5082687e-06 -3.4592327e-07     57.10648     57.10648   -1059.4519   -1059.4519 -6.9648727e-07   -497263.38 3.6270937e-16    1424965.9 
       0.066       67    436.95194   -210.64377 1.6809062e-06 -3.3124293e-07     57.10648     57.10648   -1057.1121   -1057.1121 -9.3469012e-07   -497263.38 3.6270937e-16    1424965.9 
       0.067       68    436.95194   -206.58397 1.3473758e-06 -2.3151916e-07     57.10648     57.10648   -1054.6945   -1054.6945 -8.4391702e-07   -497263.38 3.6270937e-16    1424965.9 
       0.068       69    436.95194   -202.52547 1.6124891e-06 -3.0336355e-08     57.10648     57.10648   -1052.2722   -1052.2722 -9.8782785e-07   -497263.38 3.6270937e-16    1424965.9 
       0.069       70    436.95194   -198.57297 1.6586042e-06 1.0202945e-07     57.10648     57.10648   -1049.9228   -1049.9228 -6.7598556e-07   -497263.38 3.6270937e-16    1424965.9 
        0.07       71    436.95194   -194.50599 1.209721e-06 -2.652274e-08     57.10648     57.10648   -1047.5031   -1047.5031 3.6756732e-08   -497263.38 3.6270937e-16    1424965.9 
       0.071       72    436.95194    -190.4539 1.2841323e-06 -1.045734e-07     57.10648     57.10648   -1045.0836   -1045.0836 5.3562176e-07   -497263.38 3.6270937e-16    1424965.9 
       0.072       73    436.95194   -186.50131 1.4090803e-06 -4.4797243e-08     57.10648     57.10648   -1042.7329   -1042.7329 6.2480905e-07   -497263.38 3.6270937e-16    1424965.9 
       0.073       74    436.95194   -182.42332 1.2700251e-06 -1.0345735e-07     57.10648     57.10648   -1040.3086   -1040.3086 3.6488581e-07   -497263.39 3.6270937e-16    1424965.9 
       0.074       75    436.95194   -178.36524 1.4531665e-06 -1.8059982e-07     57.10648     57.10648    -1037.885    -1037.885 -7.2799895e-08   -497263.39 3.6270937e-16    1424965.9 
       0.075       76    436.95194   -174.42542 1.3691144e-06 -5.3733378e-08     57.10648     57.10648   -1035.5405   -1035.5405 -5.482854e-07   -497263.39 3.6270937e-16    1424965.9 
       0.076       77    436.95194   -170.34923 9.9304678e-07 4.2837984e-08     57.10648     57.10648   -1033.1189   -1033.1189 -8.6852623e-07   -497263.39 3.6270937e-16    1424965.9 
       0.077       78    436.95194   -166.29758 1.0725614e-06 1.6149778e-07     57.10648     57.10648   -1030.6993   -1030.6993 -7.7454682e-07   -497263.39 3.6270937e-16    1424965.9 
       0.078       79    436.95194   -162.36824 1.1647156e-06 3.7518548e-07     57.10648     57.10648   -1028.3593   -1028.3593 2.0123625e-07   -497263.39 3.6270937e-16    1424965.9 
       0.079       80    436.95194   -158.27136 1.1242716e-06 2.8197805e-07     57.10648     57.10648   -1025.9265   -1025.9265 6.009139e-07   -497263.39 3.6270937e-16    1424965.9 
        0.08       81    436.95194   -154.21021 1.4111139e-06 -5.3617868e-08     57.10648     57.10648   -1023.5019   -1023.5019 1.9425678e-07   -497263.39 3.6270937e-16    1424965.9 
       0.081       82    436.95194   -150.27938 1.3643432e-06 -2.2084519e-07     57.10648     57.10648   -1021.1596   -1021.1596 -2.6049819e-08   -497263.39 3.6270937e-16    1424965.9 
       0.082       83    436.95194   -146.16199 1.1897306e-06 -2.405086e-07     57.10648     57.10648   -1018.7152   -1018.7152 -1.1962641e-07   -497263.39 3.6270937e-16    1424965.9 
       0.083       84    436.95194   -142.11083 1.432954e-06 -4.028545e-07     57.10648     57.10648   -1016.2974   -1016.2974 -6.2916652e-07   -497263.39 3.6270937e-16    1424965.9 
       0.084       85    436.95194   -138.19966 1.3656059e-06 -3.4775895e-07     57.10648     57.10648   -1013.9656   -1013.9656 -4.8055229e-07   -497263.39 3.6270937e-16    1424965.9 
       0.085       86    436.95194   -134.07123 1.3512005e-06 -1.2635844e-07     57.10648     57.10648   -1011.5146   -1011.5146 -1.8907651e-08   -497263.39 3.6270937e-16    1424965.9 
       0.086       87    436.95194   -130.03075 1.7552019e-06 7.4926411e-08     57.10648     57.10648   -1009.1044   -1009.1044 -2.1859328e-07   -497263.39 3.6270937e-16    1424965.9 
       0.087       88    436.95194   -126.11439 1.4475869e-06 1.4295014e-07     57.10648     57.10648   -1006.7686   -1006.7686 -5.1691543e-07   -497263.39 3.6270937e-16    1424965.9 
       0.088       89    436.95194   -121.96776 1.2580583e-06 -2.6420518e-08     57.10648     57.10648   -1004.3062   -1004.3062 -6.5668606e-07   -497263.39 3.6270937e-16    1424965.9 
       0.089       90    436.95194   -117.95099 1.5387934e-06 -1.9213094e-07     57.10648     57.10648   -1001.9116   -1001.9115 -9.7298678e-07   -497263.39 3.6270937e-16    1424965.9 
        0.09       91    436.95194   -114.03755 1.0477522e-06 -8.5006205e-09     57.10648     57.10648    -999.5768    -999.5768 -6.1330691e-07   -497263.39 3.6270937e-16    1424965.9 
       0.091       92    436.95194   -109.86772 7.0691074e-07 8.7371974e-08     57.10648     57.10648   -997.09971   -997.09971 -1.6014776e-07   -497263.39 3.6270937e-16    1424965.9 
       0.092       93    436.95194   -105.84639 5.5459886e-07 3.1775564e-08     57.10648     57.10648   -994.70373   -994.70373 1.9062918e-07   -497263.39 3.6270937e-16    1424965.9 
       0.093       94    436.95194   -101.92905 8.2219052e-08 -1.3313023e-08     57.10648     57.10648   -992.36646   -992.36646 4.8218364e-07   -497263.39 3.6270937e-16    1424965.9 
       0.094       95    436.95194   -97.762239 1.4815592e-07 -2.2558667e-07     57.10648     57.10648   -989.88985   -989.88985 2.1107944e-07   -497263.39 3.6270937e-16    1424965.9 
       0.095       96    436.95194   -93.738325 2.3862109e-07 -2.7729619e-07     57.10648     57.10648   -987.49381   -987.49381 -5.6785629e-07   -497263.39 3.6270937e-16    1424965.9 
[...]
       0.147      148      437.083    2.2405044 -1.5765204e-06 -5.8617858e-07     57.10648     57.10648   -930.05559   -930.05559 9.9095325e-12    -497263.4 3.6270937e-16    1425393.3 
       0.148      149      437.083    2.2215659 -1.5470283e-06 -6.4166606e-07     57.10648     57.10648   -930.06689   -930.06689 2.6117249e-11    -497263.4 3.6270937e-16    1425393.3 
       0.149      150      437.083    2.2042856 -1.5669416e-06 -6.9304029e-07     57.10648     57.10648    -930.0772    -930.0772 1.3304895e-11    -497263.4 3.6270937e-16    1425393.3 
        0.15      151      437.083    2.1860453 -1.6083532e-06 -7.418401e-07     57.10648     57.10648   -930.08804   -930.08804 2.9465412e-11    -497263.4 3.6270937e-16    1425393.3 
       0.151      152      437.083    2.1559161 -1.621484e-06 -8.2242853e-07     57.10648     57.10648     -930.106     -930.106 1.511824e-11    -497263.4 3.6270937e-16    1425393.3 
       0.152      153      437.083    2.1356618 -1.5062142e-06 -8.8905059e-07     57.10648     57.10648    -930.1181    -930.1181 -1.579813e-12    -497263.4 3.6270937e-16    1425393.3 
       0.153      154      437.083    2.1020951 -1.112341e-06 -1.0323414e-06     57.10648     57.10648   -930.13806   -930.13806 -4.1875361e-11    -497263.4 3.6270937e-16    1425393.3 
       0.154      155      437.083     2.077494 -7.5639225e-07 -1.1616415e-06     57.10648     57.10648   -930.15273   -930.15273 -1.7791064e-11    -497263.4 3.6270937e-16    1425393.3 
       0.155      156      437.083    2.0330197 -9.0551616e-08 -1.4262546e-06     57.10648     57.10648   -930.17927   -930.17927 4.2193779e-11    -497263.4 3.6270937e-16    1425393.3 
       0.156      157      437.083    1.9986712 3.4159539e-07 -1.610072e-06     57.10648     57.10648    -930.1997    -930.1997 3.9148455e-11    -497263.4 3.6270937e-16    1425393.3 
       0.157      158      437.083    1.9609178 6.008132e-07 -1.7334149e-06     57.10648     57.10648   -930.22218   -930.22218 1.0736703e-10    -497263.4 3.6270937e-16    1425393.3 
       0.158      159      437.083     1.910993 8.0977246e-07 -1.823739e-06     57.10648     57.10648   -930.25197   -930.25197 2.5570397e-11    -497263.4 3.6270937e-16    1425393.3 
       0.159      160      437.083    1.8693029 9.2388997e-07 -1.8147862e-06     57.10648     57.10648   -930.27678   -930.27678 -2.1922187e-11    -497263.4 3.6270937e-16    1425393.3 
        0.16      161      437.083    1.8091699 1.1070601e-06 -1.7483696e-06     57.10648     57.10648   -930.31259   -930.31259 -1.7828194e-11    -497263.4 3.6270937e-16    1425393.3 
       0.161      162      437.083     1.769984 1.3030665e-06 -1.69776e-06     57.10648     57.10648     -930.336     -930.336 -3.3405678e-11    -497263.4 3.6270937e-16    1425393.3 
       0.162      163      437.083    1.6999491 1.7336598e-06 -1.6269143e-06     57.10648     57.10648   -930.37772   -930.37772 -6.6147332e-11    -497263.4 3.6270937e-16    1425393.3 
       0.163      164      437.083    1.6542373 1.9886641e-06 -1.6012983e-06     57.10648     57.10648   -930.40491   -930.40491 -3.4791221e-11    -497263.4 3.6270937e-16    1425393.3 
       0.164      165      437.083    1.5826758 2.2858108e-06 -1.5764408e-06     57.10648     57.10648   -930.44758   -930.44758 -3.2033611e-11    -497263.4 3.6270937e-16    1425393.3 
       0.165      166      437.083    1.5371008 2.417834e-06 -1.533508e-06     57.10648     57.10648   -930.47474   -930.47474 -1.4099965e-12    -497263.4 3.6270937e-16    1425393.3 
       0.166      167      437.083    1.4653667 2.5095697e-06 -1.3986807e-06     57.10648     57.10648   -930.51744   -930.51744 5.6254149e-11    -497263.4 3.6270937e-16    1425393.3 
       0.167      168      437.083    1.4075586 2.5308591e-06 -1.2884691e-06     57.10648     57.10648   -930.55193   -930.55193 3.5612368e-11    -497263.4 3.6270937e-16    1425393.3 
       0.168      169      437.083    1.3476337 2.5208224e-06 -1.21373e-06     57.10648     57.10648   -930.58766   -930.58766 8.4393063e-11    -497263.4 3.6270937e-16    1425393.3 
       0.169      170      437.083    1.2900757 2.5607439e-06 -1.1775281e-06     57.10648     57.10648    -930.6219    -930.6219 3.6632394e-11    -497263.4 3.6270937e-16    1425393.3 
        0.17      171      437.083    1.2300173 2.7438297e-06 -1.2053686e-06     57.10648     57.10648   -930.65769   -930.65769 9.5836993e-12    -497263.4 3.6270937e-16    1425393.3 
       0.171      172      437.083     1.169984 2.9899124e-06 -1.2713765e-06     57.10648     57.10648    -930.6935    -930.6935 -3.0389767e-11    -497263.4 3.6270937e-16    1425393.3 
       0.172      173      437.083    1.1180747 3.2733009e-06 -1.3376378e-06     57.10648     57.10648    -930.7244    -930.7244 -1.018437e-10    -497263.4 3.6270937e-16    1425393.3 
       0.173      174      437.083    1.0651166 3.6509192e-06 -1.3528848e-06     57.10648     57.10648   -930.75597   -930.75597 -6.7038782e-11    -497263.4 3.6270937e-16    1425393.3 
       0.174      175      437.083    1.0138742 4.1117206e-06 -1.2800152e-06     57.10648     57.10648   -930.78653   -930.78653 -9.80637e-11    -497263.4 3.6270937e-16    1425393.3 
       0.175      176      437.083   0.96303465 4.5372046e-06 -1.2041435e-06     57.10648     57.10648   -930.81678   -930.81678 -4.8488461e-11    -497263.4 3.6270937e-16    1425393.3 
       0.176      177      437.083   0.91888444 4.7828265e-06 -1.1990926e-06     57.10648     57.10648   -930.84307   -930.84307 -7.3393381e-11    -497263.4 3.6270937e-16    1425393.3 
       0.177      178      437.083   0.87620291 4.9786258e-06 -1.2187169e-06     57.10648     57.10648   -930.86855   -930.86855 -1.4337535e-11    -497263.4 3.6270937e-16    1425393.3 
       0.178      179      437.083   0.83158064 5.1878782e-06 -1.2417023e-06     57.10648     57.10648   -930.89513   -930.89513 -9.7593179e-12    -497263.4 3.6270937e-16    1425393.3 
       0.179      180      437.083   0.79326696 5.3114262e-06 -1.2818958e-06     57.10648     57.10648   -930.91795   -930.91795 -4.4713685e-12    -497263.4 3.6270937e-16    1425393.3 
        0.18      181      437.083   0.75707489 5.3227771e-06 -1.3269707e-06     57.10648     57.10648   -930.93952   -930.93952 -1.6307057e-11    -497263.4 3.6270937e-16    1425393.3 
       0.181      182      437.083   0.72379743 5.3278016e-06 -1.2909521e-06     57.10648     57.10648   -930.95934   -930.95934 -3.3298824e-11    -497263.4 3.6270937e-16    1425393.3 
       0.182      183      437.083   0.69005369 5.3751105e-06 -1.1355102e-06     57.10648     57.10648   -930.97943   -930.97943 -5.7292736e-11    -497263.4 3.6270937e-16    1425393.3 
       0.183      184      437.083   0.66041485 5.3610432e-06 -9.7924216e-07     57.10648     57.10648   -930.99711   -930.99711 -4.0844376e-11    -497263.4 3.6270937e-16    1425393.3 
       0.184      185      437.083   0.63003012 5.1723006e-06 -8.9254454e-07     57.10648     57.10648   -931.01523   -931.01523 -2.2493806e-11    -497263.4 3.6270937e-16    1425393.3 
       0.185      186      437.083   0.60711569 4.8908026e-06 -9.0251556e-07     57.10648     57.10648   -931.02887   -931.02887 -8.807282e-12    -497263.4 3.6270937e-16    1425393.3 
       0.186      187      437.083   0.57705504 4.4531078e-06 -9.6622796e-07     57.10648     57.10648   -931.04678   -931.04678 2.7273176e-12    -497263.4 3.6270937e-16    1425393.3 
       0.187      188      437.083   0.55636154 4.168783e-06 -1.0198943e-06     57.10648     57.10648   -931.05912   -931.05912 -4.2877889e-13    -497263.4 3.6270937e-16    1425393.3 
       0.188      189      437.083   0.53157223 3.8143268e-06 -1.0910965e-06     57.10648     57.10648   -931.07387   -931.07387 3.3279115e-12    -497263.4 3.6270937e-16    1425393.3 
       0.189      190      437.083   0.51371302 3.5279181e-06 -1.1326261e-06     57.10648     57.10648   -931.08451   -931.08451 1.2710908e-11    -497263.4 3.6270937e-16    1425393.3 
        0.19      191      437.083   0.49034139 3.2246891e-06 -1.1405789e-06     57.10648     57.10648   -931.09846   -931.09846 9.9158055e-12    -497263.4 3.6270937e-16    1425393.3 
       0.191      192      437.083   0.47342019 3.1681788e-06 -1.1012063e-06     57.10648     57.10648   -931.10854   -931.10854 5.0938152e-12    -497263.4 3.6270937e-16    1425393.3 
       0.192      193      437.083   0.45488208 3.1706163e-06 -1.0716387e-06     57.10648     57.10648   -931.11958   -931.11958 -8.493025e-14    -497263.4 3.6270937e-16    1425393.3 
       0.193      194      437.083   0.43888321  3.03338e-06 -1.1323442e-06     57.10648     57.10648   -931.12912   -931.12912 -3.481081e-12    -497263.4 3.6270937e-16    1425393.3 
       0.194      195      437.083   0.42247132 2.7776612e-06 -1.2428206e-06     57.10648     57.10648   -931.13889   -931.13889 -3.0711036e-12    -497263.4 3.6270937e-16    1425393.3 
       0.195      196      437.083   0.40598447 2.5334306e-06 -1.3317426e-06     57.10648     57.10648    -931.1487    -931.1487 -8.3173324e-12    -497263.4 3.6270937e-16    1425393.3 
       0.196      197      437.083   0.39278503 2.3866399e-06 -1.3710532e-06     57.10648     57.10648   -931.15658   -931.15658 -4.4249153e-12    -497263.4 3.6270937e-16    1425393.3 
       0.197      198      437.083   0.37719685 2.1921393e-06 -1.4039513e-06     57.10648     57.10648   -931.16588   -931.16588 1.2184685e-12    -497263.4 3.6270937e-16    1425393.3 
       0.198      199      437.083   0.36457384 1.9549491e-06 -1.4397164e-06     57.10648     57.10648   -931.17339   -931.17339 3.0448815e-12    -497263.4 3.6270937e-16    1425393.3 
       0.199      200      437.083   0.34990684 1.6666927e-06 -1.4679969e-06     57.10648     57.10648   -931.18213   -931.18213 3.9029896e-12    -497263.4 3.6270937e-16    1425393.3 
         0.2      201      437.083   0.33891912 1.5434846e-06 -1.4536276e-06     57.10648     57.10648   -931.18868   -931.18868 6.279503e-12    -497263.4 3.6270937e-16    1425393.3 
       0.201      202      437.083   0.32493322 1.4150682e-06 -1.4213506e-06     57.10648     57.10648     -931.197     -931.197 5.1876932e-12    -497263.4 3.6270937e-16    1425393.3 
       0.202      203      437.083   0.31408328 1.1597585e-06 -1.4396299e-06     57.10648     57.10648   -931.20347   -931.20347 -1.1642557e-12    -497263.4 3.6270937e-16    1425393.3 
       0.203      204      437.083   0.30044751 7.3944677e-07 -1.4813697e-06     57.10648     57.10648   -931.21161   -931.21161 -2.7336853e-12    -497263.4 3.6270937e-16    1425393.3 
       0.204      205      437.083   0.28995397 5.3773444e-07 -1.4514514e-06     57.10648     57.10648   -931.21785   -931.21785 -4.9123051e-12    -497263.4 3.6270937e-16    1425393.3 
       0.205      206      437.083   0.27809886 3.8694153e-07 -1.3772489e-06     57.10648     57.10648   -931.22492   -931.22492 -1.2526254e-12    -497263.4 3.6270937e-16    1425393.3 
       0.206      207      437.083   0.26681405 1.8731563e-07 -1.3365693e-06     57.10648     57.10648   -931.23165   -931.23165 -1.2857822e-12    -497263.4 3.6270937e-16    1425393.3 
       0.207      208      437.083   0.25601938 -1.8833373e-08 -1.3251676e-06     57.10648     57.10648   -931.23807   -931.23807 -5.4333251e-13    -497263.4 3.6270937e-16    1425393.3 
       0.208      209      437.083   0.24480636 -1.4579439e-07 -1.2843959e-06     57.10648     57.10648   -931.24474   -931.24474 -2.0635616e-12    -497263.4 3.6270937e-16    1425393.3 
       0.209      210      437.083   0.23518464 -2.0191801e-07 -1.2055117e-06     57.10648     57.10648   -931.25049   -931.25049 -4.7862673e-12    -497263.4 3.6270937e-16    1425393.3 
        0.21      211      437.083    0.2229014 -2.9984922e-07 -1.1117271e-06     57.10648     57.10648   -931.25782   -931.25782 -7.8651172e-12    -497263.4 3.6270937e-16    1425393.3 
       0.211      212      437.083   0.21395686 -4.1592846e-07 -1.1007001e-06     57.10648     57.10648   -931.26314   -931.26314 -4.9489298e-12    -497263.4 3.6270937e-16    1425393.3 
       0.212      213      437.083   0.20229318 -5.4787459e-07 -1.1041372e-06     57.10648     57.10648   -931.27009   -931.27009 -1.8250334e-12    -497263.4 3.6270937e-16    1425393.3 
       0.213      214      437.083   0.19373233 -5.4430281e-07 -1.0429675e-06     57.10648     57.10648   -931.27519   -931.27519 -1.2784801e-12    -497263.4 3.6270937e-16    1425393.3 
       0.214      215      437.083    0.1825357 -4.8084814e-07 -9.6596544e-07     57.10648     57.10648   -931.28185   -931.28185 -1.7989247e-12    -497263.4 3.6270937e-16    1425393.3 
       0.215      216      437.083   0.17298914 -4.967667e-07 -1.0156398e-06     57.10648     57.10648   -931.28755   -931.28755 -3.7834482e-12    -497263.4 3.6270937e-16    1425393.3 
       0.216      217      437.083   0.16355922 -5.6419649e-07 -1.0828046e-06     57.10648     57.10648   -931.29318   -931.29318 -2.4208267e-12    -497263.4 3.6270937e-16    1425393.3 
       0.217      218      437.083   0.15374849 -6.0919566e-07 -1.0631935e-06     57.10648     57.10648   -931.29903   -931.29903 -2.0615011e-12    -497263.4 3.6270937e-16    1425393.3 
       0.218      219      437.083   0.14478351 -6.1728722e-07 -1.0326194e-06     57.10648     57.10648   -931.30438   -931.30438 -1.257404e-12    -497263.4 3.6270937e-16    1425393.3 
       0.219      220      437.083   0.13518877 -6.5441822e-07 -1.059012e-06     57.10648     57.10648   -931.31009   -931.31009 -3.0852691e-12    -497263.4 3.6270937e-16    1425393.3 
        0.22      221      437.083   0.12758152 -7.3443218e-07 -1.077736e-06     57.10648     57.10648    -931.3146    -931.3146 -2.049886e-12    -497263.4 3.6270937e-16    1425393.3 
       0.221      222      437.083   0.11852404 -8.0608411e-07 -1.0448137e-06     57.10648     57.10648   -931.31999   -931.31999 -1.3334049e-12    -497263.4 3.6270937e-16    1425393.3 
       0.222      223      437.083    0.1109484 -7.6013196e-07 -9.980633e-07     57.10648     57.10648   -931.32452   -931.32452 -3.5373791e-12    -497263.4 3.6270937e-16    1425393.3 
       0.223      224      437.083   0.10243438 -6.6443002e-07 -9.6129105e-07     57.10648     57.10648    -931.3296    -931.3296 -2.0831275e-12    -497263.4 3.6270937e-16    1425393.3 
       0.224      225      437.083  0.095273836 -6.7820224e-07 -9.5087756e-07     57.10648     57.10648   -931.33388   -931.33388 -4.0285453e-12    -497263.4 3.6270937e-16    1425393.3 
       0.225      226      437.083  0.088254158 -7.2888878e-07 -9.4256416e-07     57.10648     57.10648   -931.33807   -931.33807 -4.0340337e-12    -497263.4 3.6270937e-16    1425393.3 
       0.226      227      437.083  0.081546854 -7.045768e-07 -9.2171407e-07     57.10648     57.10648   -931.34206   -931.34206 -4.3433137e-12    -497263.4 3.6270937e-16    1425393.3 
       0.227      228      437.083  0.075484843 -6.347538e-07 -8.9538913e-07     57.10648     57.10648   -931.34566   -931.34566 -3.887057e-12    -497263.4 3.6270937e-16    1425393.3 
       0.228      229      437.083  0.069704911 -6.0642981e-07 -8.8112786e-07     57.10648     57.10648    -931.3491    -931.3491 -3.4100587e-12    -497263.4 3.6270937e-16    1425393.3 
       0.229      230      437.083  0.064146264 -6.2475059e-07 -8.8423901e-07     57.10648     57.10648   -931.35241   -931.35241 -3.4494485e-12    -497263.4 3.6270937e-16    1425393.3 
        0.23      231      437.083  0.058762854 -5.9665756e-07 -8.7583282e-07     57.10648     57.10648   -931.35562   -931.35562 -3.4443558e-12    -497263.4 3.6270937e-16    1425393.3 
       0.231      232      437.083  0.053466835 -4.9993401e-07 -8.4149528e-07     57.10648     57.10648    -931.3588    -931.3588 -2.9601655e-12    -497263.4 3.6270937e-16    1425393.3 
       0.232      233      437.083  0.049002231 -4.4150247e-07 -8.1651826e-07     57.10648     57.10648   -931.36148   -931.36148 -3.0352853e-12    -497263.4 3.6270937e-16    1425393.3 
       0.233      234      437.083  0.044524749 -4.4923784e-07 -8.1480106e-07     57.10648     57.10648   -931.36418   -931.36418 -5.0288449e-13    -497263.4 3.6270937e-16    1425393.3 
       0.234      235      437.083  0.040414002 -4.6163933e-07 -8.1245829e-07     57.10648     57.10648   -931.36665   -931.36665 -1.4293091e-12    -497263.4 3.6270937e-16    1425393.3 
       0.235      236      437.083  0.036656554 -4.2786305e-07 -7.8600824e-07     57.10648     57.10648   -931.36891   -931.36891 -1.0555095e-12    -497263.4 3.6270937e-16    1425393.3 
       0.236      237      437.083  0.033347448 -3.6435707e-07 -7.5011137e-07     57.10648     57.10648    -931.3709    -931.3709 -2.392364e-13    -497263.4 3.6270937e-16    1425393.3 
       0.237      238      437.083  0.029224938 -3.0626084e-07 -7.2552318e-07     57.10648     57.10648    -931.3734    -931.3734 1.1012934e-12    -497263.4 3.6270937e-16    1425393.3 
       0.238      239      437.083  0.022623382 -2.6364699e-07 -7.0087609e-07     57.10648     57.10648   -931.37744   -931.37744 2.2617497e-12    -497263.4 3.6270937e-16    1425393.3 
       0.239      240      437.083  0.014482536 -1.4566965e-07 -5.9590468e-07     57.10648     57.10648    -931.3824    -931.3824 4.9170947e-12    -497263.4 3.6270937e-16    1425393.3 
        0.24      241      437.083 0.0042136061 1.9181154e-07 -3.5187546e-07     57.10648     57.10648   -931.38858   -931.38858 6.0042027e-12    -497263.4 3.6270937e-16    1425393.3 
       0.241      242      437.083 -0.0030940209 5.0485768e-07 -1.8452499e-07     57.10648     57.10648   -931.39286   -931.39286 4.9627597e-12    -497263.4 3.6270937e-16    1425393.3 
       0.242      243      437.083 -0.0064366485 6.0510823e-07 -1.1823127e-07     57.10648     57.10648    -931.3947    -931.3947 2.8459552e-12    -497263.4 3.6270937e-16    1425393.3 
       0.243      244      437.083 -0.0066872209 5.7633607e-07 -9.0437003e-08     57.10648     57.10648   -931.39475   -931.39475 9.8160874e-13    -497263.4 3.6270937e-16    1425393.3 
       0.244      245      437.083 -0.006469691 5.7464383e-07 -8.0787104e-08     57.10648     57.10648   -931.39458   -931.39458 1.1401416e-12    -497263.4 3.6270937e-16    1425393.3 
       0.245      246      437.083 -0.0063175134 5.8603521e-07 -8.4022191e-08     57.10648     57.10648   -931.39447   -931.39447 -5.7365757e-13    -497263.4 3.6270937e-16    1425393.3 
Loop time of 30.1414 on 64 procs for 244 steps with 120800 atoms

85.6% CPU use with 64 MPI tasks x 1 OpenMP threads

Minimization stats:
  Stopping criterion = energy tolerance
  Energy initial, next-to-last, final = 
     -497263.135477607  -497263.401315488  -497263.401315488
  Force two-norm initial, final = 0.14495015 8.0149205e-06
  Force max component initial, final = 0.0050010596 7.3873268e-08
  Final line search alpha, max atom move = 1.0000000 7.3873268e-08
  Iterations, force evaluations = 244 488

MPI task timing breakdown:
Section |  min time  |  avg time  |  max time  |%varavg| %total
---------------------------------------------------------------
Pair    | 12.909     | 16.932     | 19.304     |  38.8 | 56.17
Neigh   | 0          | 0          | 0          |   0.0 |  0.00
Comm    | 6.2646     | 6.815      | 11.009     |  41.7 | 22.61
Output  | 0.89663    | 0.89982    | 0.90507    |   0.2 |  2.99
Modify  | 0          | 0          | 0          |   0.0 |  0.00
Other   |            | 5.495      |            |       | 18.23

Nlocal:        1887.50 ave        2005 max        1596 min
Histogram: 4 0 0 0 0 0 1 55 0 4
Nghost:        5147.12 ave        5325 max        4342 min
Histogram: 4 0 0 4 0 0 0 16 4 36
Neighs:         0.00000 ave           0 max           0 min
Histogram: 64 0 0 0 0 0 0 0 0 0
FullNghs:      315025.0 ave      336840 max      251224 min
Histogram: 4 0 0 0 0 2 2 34 18 4

Total # of neighbors = 20161600
Ave neighs/atom = 166.90066
Neighbor list builds = 0
Dangerous builds = 0
437.083004286 57.10648 -0.00631751343059002 0.00643302016052652 0.000499875041650993 0.245 3.62709370717403e-16
minimize end
  using 1 OpenMP thread(s) per MPI task
