LAMMPS (29 Sep 2021 - Update 1)
KOKKOS mode is enabled (../kokkos.cpp:97)
  will use up to 2 GPU(s) per node
  using 1 OpenMP thread(s) per MPI task
Reading data file ...
  orthogonal box = (0.0000000 0.0000000 0.0000000) to (436.86457 57.106480 57.106480)
  16 by 2 by 2 MPI processor grid
  reading atoms ...
  120800 atoms
  read_data CPU = 0.271 seconds
800 atoms in group source
800 atoms in group detector
0 atoms in group edge
0 atoms in group edge_buf
0 atoms in group buffer
WARNING: Using 'neigh_modify every 1 delay 0 check yes' setting during minimization (../min.cpp:188)
Neighbor list info ...
  update every 1 steps, delay 0 steps, check yes
  max neighbors/atom: 2000, page size: 100000
  master list distance cutoff = 7.6
  ghost atom cutoff = 7.6
  binsize = 7.6, bins = 58 8 8
  1 neighbor lists, perpetual/occasional/extra = 1 0 0
  (1) pair eam/alloy/kk, perpetual
      attributes: full, newton off, kokkos_device
      pair build: full/bin/kk/device
      stencil: full/bin/3d
      bin: kk/device
Setting up cg/kk style minimization ...
  Unit style    : metal
  Current step  : 0
WARNING: Fixes cannot yet send exchange data in Kokkos communication, switching to classic exchange/border communication (../comm_kokkos.cpp:581)
Per MPI rank memory allocation (min/avg/max) = 2.301 | 2.470 | 2.508 Mbytes
Time Step Lx Pxx Pxy Pxz Ly Lz Pyy Pzz Pyz TotEng Temp Volume 
           0        0    436.86457    118.80219 -5.3898926e-13 -4.8574141e-13     57.10648     57.10648    -812.7081    -812.7081 3.0106871e-13   -497261.36            0    1424680.9 
       0.001        1    436.86457     44.79424 -5.4739134e-13 -4.9352955e-13     57.10648     57.10648   -904.84846   -904.84846 -3.3964842e-13   -497263.27            0    1424680.9 
       0.002        2    436.86457     23.52156 -2.6788443e-13 -6.8439985e-13     57.10648     57.10648   -922.24294   -922.24294 5.7126856e-14   -497263.32            0    1424680.9 
       0.003        3    436.86457    28.149253 -5.9359474e-13 -5.8562313e-13     57.10648     57.10648   -914.02867   -914.02867 -5.1179756e-13   -497263.39            0    1424680.9 
       0.004        4    436.86457    22.769747 -1.2491281e-13 -1.1503604e-13     57.10648     57.10648   -917.45532   -917.45532 -1.6647875e-12    -497263.4            0    1424680.9 
       0.005        5    436.86457    15.459859 -5.8540499e-13 -5.0571799e-13     57.10648     57.10648   -922.54335   -922.54335 -3.7474898e-13    -497263.4            0    1424680.9 
       0.006        6    436.86457    12.792724 -2.8558552e-13 -7.1744846e-13     57.10648     57.10648   -924.29598   -924.29598 -1.8905987e-13    -497263.4            0    1424680.9 
       0.007        7    436.86457    11.298523 -1.8003582e-13 1.8134859e-13     57.10648     57.10648   -925.04899   -925.04899 -2.1438558e-12    -497263.4            0    1424680.9 
       0.008        8    436.86457    10.158465 3.1367552e-13 7.8494918e-13     57.10648     57.10648   -925.72096   -925.72096 -9.7926095e-13    -497263.4            0    1424680.9 
       0.009        9    436.86457    8.7822335 4.7999723e-13 1.1188184e-12     57.10648     57.10648   -926.61722   -926.61722 1.1757052e-12    -497263.4            0    1424680.9 
        0.01       10    436.86457    7.9756887 4.3611181e-13 1.7057357e-12     57.10648     57.10648   -927.10962   -927.10962 7.0336589e-13    -497263.4            0    1424680.9 
       0.011       11    436.86457    7.3895153 9.6650742e-13 5.6645011e-13     57.10648     57.10648   -927.43503   -927.43503 1.9809751e-13    -497263.4            0    1424680.9 
       0.012       12    436.86457    6.8833877 2.6579755e-13 -2.2700129e-14     57.10648     57.10648    -927.7324    -927.7324 1.3405982e-13    -497263.4            0    1424680.9 
       0.013       13    436.86457    6.3274472 3.6525868e-14 1.044326e-12     57.10648     57.10648   -928.08443   -928.08443 2.0428216e-13    -497263.4            0    1424680.9 
       0.014       14    436.86457    5.9317412 3.2244928e-14 -1.7576872e-13     57.10648     57.10648   -928.32489   -928.32489 4.9971482e-13    -497263.4            0    1424680.9 
       0.015       15    436.86457    5.6267772 -1.20708e-12 5.4157822e-13     57.10648     57.10648   -928.49523   -928.49523 -1.3481257e-13    -497263.4            0    1424680.9 
       0.016       16    436.86457    5.3396062 2.254236e-13 7.494078e-13     57.10648     57.10648   -928.66612   -928.66612 4.8373406e-14    -497263.4            0    1424680.9 
       0.017       17    436.86457    5.0405437 1.3833755e-12 5.0808473e-13     57.10648     57.10648   -928.85271   -928.85271 -4.3280229e-13    -497263.4            0    1424680.9 
       0.018       18    436.86457    4.8076098 5.1325209e-14 6.726229e-13     57.10648     57.10648   -928.99267   -928.99267 4.3630473e-13    -497263.4            0    1424680.9 
       0.019       19    436.86457    4.6186846 -7.4580505e-13 1.5285123e-12     57.10648     57.10648   -929.10002   -929.10002 7.9635845e-14    -497263.4            0    1424680.9 
        0.02       20    436.86457     4.433151 2.5641285e-13 1.6546245e-12     57.10648     57.10648   -929.21062   -929.21062 -2.6491296e-14    -497263.4            0    1424680.9 
       0.021       21    436.86457    4.2464509 1.4603543e-12 1.2905814e-12     57.10648     57.10648   -929.32623   -929.32623 4.4645411e-14    -497263.4            0    1424680.9 
       0.022       22    436.86457    4.0922426 6.910947e-13 3.1255076e-12     57.10648     57.10648   -929.41835   -929.41835 -2.2678705e-12    -497263.4            0    1424680.9 
       0.023       23    436.86457    3.9634832 2.4056679e-12 5.6082402e-12     57.10648     57.10648   -929.49207   -929.49207 -8.9227269e-12    -497263.4            0    1424680.9 
       0.024       24    436.86457    3.8332396 2.5155949e-11 2.9158869e-11     57.10648     57.10648   -929.57004   -929.57004 -9.6392678e-11    -497263.4            0    1424680.9 
       0.025       25    436.86457    3.7071728 1.6258173e-10 1.7413023e-10     57.10648     57.10648   -929.64758   -929.64758 -7.611467e-10    -497263.4            0    1424680.9 
       0.026       26    436.86457    3.6104387 9.0410209e-10 8.5952906e-10     57.10648     57.10648   -929.70529   -929.70529 -4.6773865e-09    -497263.4            0    1424680.9 
       0.027       27    436.86457     3.536235 6.7506693e-10 5.0249685e-10     57.10648     57.10648   -929.74838   -929.74838 -4.0469557e-09    -497263.4            0    1424680.9 
       0.028       28    436.86457    3.4545778 1.6878968e-10 7.4018601e-11     57.10648     57.10648   -929.79605   -929.79605 -1.4564027e-09    -497263.4            0    1424680.9 
       0.029       29    436.86457    3.3573393 1.3192816e-10 3.3605765e-10     57.10648     57.10648   -929.85519   -929.85519 -1.795638e-09    -497263.4            0    1424680.9 
        0.03       30    436.86457    3.2779594 2.3316345e-10 1.7322397e-09     57.10648     57.10648   -929.90349   -929.90349 -5.5919163e-09    -497263.4            0    1424680.9 
       0.031       31    436.86457    3.2167284 4.9683336e-11 2.0901461e-09     57.10648     57.10648   -929.93964   -929.93964 -6.2930577e-09    -497263.4            0    1424680.9 
       0.032       32    436.86457     3.153151 -8.0954858e-11 4.2816753e-10     57.10648     57.10648    -929.9765    -929.9765 -1.3420461e-09    -497263.4            0    1424680.9 
       0.033       33    436.86457    3.0831434 -1.4017482e-11 4.0730329e-10     57.10648     57.10648   -930.01821   -930.01821 -9.6382011e-10    -497263.4            0    1424680.9 
       0.034       34    436.86457    3.0183481 1.999788e-10 1.242634e-09     57.10648     57.10648   -930.05773   -930.05773 -2.4920611e-09    -497263.4            0    1424680.9 
       0.035       35    436.86457    2.9679204 5.5385559e-11 8.8741126e-10     57.10648     57.10648   -930.08814   -930.08814 -2.2718225e-09    -497263.4            0    1424680.9 
       0.036       36    436.86457      2.91107 -1.2940793e-10 1.3633519e-10     57.10648     57.10648   -930.12151   -930.12151 -9.8627336e-10    -497263.4            0    1424680.9 
       0.037       37    436.86457    2.8582831 -1.4560552e-10 2.5612037e-10     57.10648     57.10648   -930.15236   -930.15236 -1.4733298e-09    -497263.4            0    1424680.9 
       0.038       38    436.86457    2.8095154 -4.9940754e-11 7.9087536e-10     57.10648     57.10648   -930.18173   -930.18173 -3.1566185e-09    -497263.4            0    1424680.9 
       0.039       39    436.86457    2.7630042 -9.0700431e-12 2.9010389e-10     57.10648     57.10648   -930.21002   -930.21002 -1.5382686e-09    -497263.4            0    1424680.9 
        0.04       40    436.86457    2.7137734 -6.3198764e-11 9.4045316e-11     57.10648     57.10648   -930.23946   -930.23946 -9.6343747e-10    -497263.4            0    1424680.9 
       0.041       41    436.86457    2.6707758 -1.2676112e-10 1.9355916e-10     57.10648     57.10648   -930.26456   -930.26456 -1.2794401e-09    -497263.4            0    1424680.9 
       0.042       42    436.86457    2.6349937 -6.3540911e-11 1.5754639e-10     57.10648     57.10648   -930.28566   -930.28566 -9.5681761e-10    -497263.4            0    1424680.9 
       0.043       43    436.86457    2.5908127 -1.8313379e-11 3.2800982e-11     57.10648     57.10648    -930.3123    -930.3123 -3.5222541e-10    -497263.4            0    1424680.9 
       0.044       44    436.86457     2.548192 -6.0286476e-11 4.462315e-11     57.10648     57.10648   -930.33813   -930.33813 -1.1046659e-10    -497263.4            0    1424680.9 
       0.045       45    436.86457    2.5130809 -1.017479e-10 1.2231324e-10     57.10648     57.10648   -930.35893   -930.35893 1.7078344e-10    -497263.4            0    1424680.9 
       0.046       46    436.86457    2.4798363 -3.1567139e-12 8.3353848e-11     57.10648     57.10648   -930.37837   -930.37837 7.0797321e-11    -497263.4            0    1424680.9 
       0.047       47    436.86457    2.4430453 4.1123515e-11 9.0343092e-11     57.10648     57.10648   -930.40022   -930.40022 -6.3130949e-11    -497263.4            0    1424680.9 
       0.048       48    436.86457    2.4076983 8.820415e-11 1.7222473e-10     57.10648     57.10648   -930.42162   -930.42162 -2.6295229e-10    -497263.4            0    1424680.9 
       0.049       49    436.86457    2.3776373 1.245189e-10 1.5932577e-10     57.10648     57.10648   -930.43973   -930.43973 -3.1582732e-10    -497263.4            0    1424680.9 
        0.05       50    436.86457    2.3445849 1.2882238e-10 1.4080629e-10     57.10648     57.10648   -930.45925   -930.45925 -2.424728e-10    -497263.4            0    1424680.9 
       0.051       51    436.86457    2.3144826 1.8048188e-10 2.7016413e-10     57.10648     57.10648   -930.47691   -930.47691 -2.3631044e-10    -497263.4            0    1424680.9 
       0.052       52    436.86457    2.2869277 2.2742514e-10 3.5848826e-10     57.10648     57.10648   -930.49338   -930.49338 -1.6196539e-10    -497263.4            0    1424680.9 
       0.053       53    436.86457    2.2567145 1.5801649e-10 2.0152024e-10     57.10648     57.10648   -930.51167   -930.51167 -9.9390947e-11    -497263.4            0    1424680.9 
       0.054       54    436.86457    2.2273057 1.585085e-10 2.7042646e-10     57.10648     57.10648   -930.52928   -930.52928 -1.9560039e-10    -497263.4            0    1424680.9 
       0.055       55    436.86457    2.2021924 1.4190678e-10 3.6279623e-10     57.10648     57.10648   -930.54405   -930.54405 -2.429415e-10    -497263.4            0    1424680.9 
       0.056       56    436.86457    2.1777685 8.0625229e-11 2.1377405e-10     57.10648     57.10648   -930.55843   -930.55843 -9.1189777e-11    -497263.4            0    1424680.9 
       0.057       57    436.86457    2.1497664 6.8167779e-11 2.377632e-10     57.10648     57.10648   -930.57524   -930.57524 -6.46886e-11    -497263.4            0    1424680.9 
       0.058       58    436.86457    2.1250943 6.6895146e-11 3.4779025e-10     57.10648     57.10648   -930.59014   -930.59014 -1.1447997e-10    -497263.4            0    1424680.9 
       0.059       59    436.86457      2.10189 3.9269581e-11 2.4947831e-10     57.10648     57.10648   -930.60398   -930.60398 -1.0084863e-10    -497263.4            0    1424680.9 
        0.06       60    436.86457    2.0774838 3.0639176e-12 2.0770449e-10     57.10648     57.10648   -930.61832   -930.61832 -1.06024e-10    -497263.4            0    1424680.9 
       0.061       61    436.86457    2.0552691 -4.6437578e-11 3.4478677e-10     57.10648     57.10648   -930.63149   -930.63149 -2.0916273e-10    -497263.4            0    1424680.9 
       0.062       62    436.86457    2.0333844 -4.3937482e-11 2.7801434e-10     57.10648     57.10648   -930.64465   -930.64465 -1.7028808e-10    -497263.4            0    1424680.9 
       0.063       63    436.86457    2.0101841 -1.9534848e-11 1.9647468e-10     57.10648     57.10648   -930.65864   -930.65864 -1.1823552e-10    -497263.4            0    1424680.9 
       0.064       64    436.86457    1.9884971 -4.4878574e-12 2.9362511e-10     57.10648     57.10648    -930.6715    -930.6715 -1.745585e-10    -497263.4            0    1424680.9 
       0.065       65    436.86457    1.9695409 -5.6729597e-12 2.2755022e-10     57.10648     57.10648   -930.68265   -930.68265 -1.1018699e-10    -497263.4            0    1424680.9 
       0.066       66    436.86457    1.9486959 -1.1397069e-12 1.4222708e-10     57.10648     57.10648   -930.69504   -930.69504 -2.6423838e-11    -497263.4            0    1424680.9 
       0.067       67    436.86457    1.9271781 1.1350006e-11 1.8088877e-10     57.10648     57.10648   -930.70801   -930.70801 -3.4690071e-12    -497263.4            0    1424680.9 
       0.068       68    436.86457    1.9087622 9.7989123e-12 1.7992165e-10     57.10648     57.10648   -930.71906   -930.71906 -3.1139645e-11    -497263.4            0    1424680.9 
       0.069       69    436.86457    1.8892894 7.8186182e-12 1.0848192e-10     57.10648     57.10648   -930.73059   -930.73059 -6.0675859e-11    -497263.4            0    1424680.9 
        0.07       70    436.86457    1.8704497 1.9788755e-11 1.1721552e-10     57.10648     57.10648   -930.74169   -930.74169 -9.7669684e-11    -497263.4            0    1424680.9 
       0.071       71    436.86457     1.852848 3.1559285e-11 1.1868298e-10     57.10648     57.10648    -930.7522    -930.7522 -1.0811972e-10    -497263.4            0    1424680.9 
       0.072       72    436.86457    1.8341646 2.1175678e-11 6.1795625e-11     57.10648     57.10648   -930.76346   -930.76346 -4.7583774e-11    -497263.4            0    1424680.9 
       0.073       73    436.86457     1.815654 4.2366491e-11 7.7203088e-11     57.10648     57.10648   -930.77453   -930.77453 -1.6065762e-11    -497263.4            0    1424680.9 
       0.074       74    436.86457    1.7991877 6.0965537e-11 9.5107392e-11     57.10648     57.10648   -930.78426   -930.78426 7.2764109e-12    -497263.4            0    1424680.9 
       0.075       75    436.86457      1.78292 2.8729775e-11 4.6483812e-11     57.10648     57.10648   -930.79386   -930.79386 -4.7914468e-12    -497263.4            0    1424680.9 
       0.076       76    436.86457    1.7649472 2.8059196e-11 5.0205475e-11     57.10648     57.10648   -930.80462   -930.80462 -3.137931e-11    -497263.4            0    1424680.9 
       0.077       77    436.86457    1.7487213 3.6095764e-11 7.9984519e-11     57.10648     57.10648   -930.81439   -930.81439 -2.8711302e-11    -497263.4            0    1424680.9 
       0.078       78    436.86457    1.7328481 1.8597909e-11 6.1286221e-11     57.10648     57.10648   -930.82387   -930.82387 1.0220689e-11    -497263.4            0    1424680.9 
       0.079       79    436.86457    1.7164348 1.4994879e-11 5.5947454e-11     57.10648     57.10648   -930.83355   -930.83355 1.4417875e-11    -497263.4            0    1424680.9 
        0.08       80    436.86457    1.7015647 1.8897812e-11 7.4972848e-11     57.10648     57.10648   -930.84236   -930.84236 -9.2797087e-12    -497263.4            0    1424680.9 
       0.081       81    436.86457    1.6860658 4.7460467e-12 5.0502583e-11     57.10648     57.10648   -930.85166   -930.85166 -2.3772365e-11    -497263.4            0    1424680.9 
       0.082       82    436.86457    1.6700103 4.9622773e-12 4.6339673e-11     57.10648     57.10648   -930.86131   -930.86131 -3.6786127e-11    -497263.4            0    1424680.9 
       0.083       83    436.86457    1.6553195 1.1887776e-11 7.0650412e-11     57.10648     57.10648   -930.87004   -930.87004 -6.9602041e-11    -497263.4            0    1424680.9 
       0.084       84    436.86457    1.6413437 6.3788371e-13 5.150986e-11     57.10648     57.10648   -930.87829   -930.87829 -5.6375389e-11    -497263.4            0    1424680.9 
       0.085       85    436.86457    1.6264373 -1.3716285e-11 4.4880334e-11     57.10648     57.10648   -930.88715   -930.88715 -5.2898269e-11    -497263.4            0    1424680.9 
       0.086       86    436.86457    1.6118741 -2.9049183e-11 6.2466752e-11     57.10648     57.10648   -930.89589   -930.89589 -5.481682e-11    -497263.4            0    1424680.9 
       0.087       87    436.86457    1.5981902 -2.9320632e-11 5.2100103e-11     57.10648     57.10648    -930.9041    -930.9041 -3.1744167e-11    -497263.4            0    1424680.9 
       0.088       88    436.86457    1.5836979 -2.6984425e-11 4.5238973e-11     57.10648     57.10648    -930.9127    -930.9127 -3.640171e-11    -497263.4            0    1424680.9 
       0.089       89    436.86457    1.5704302 -3.7161495e-11 5.1136056e-11     57.10648     57.10648   -930.92054   -930.92054 -6.8308332e-11    -497263.4            0    1424680.9 
        0.09       90    436.86457    1.5573311 -3.8355949e-11 4.012904e-11     57.10648     57.10648   -930.92834   -930.92834 -6.4637363e-11    -497263.4            0    1424680.9 
       0.091       91    436.86457    1.5430674 -3.3294963e-11 3.4246004e-11     57.10648     57.10648   -930.93691   -930.93691 -6.000784e-11    -497263.4            0    1424680.9 
       0.092       92    436.86457    1.5299627 -3.7546724e-11 4.4743624e-11     57.10648     57.10648   -930.94475   -930.94475 -8.5474351e-11    -497263.4            0    1424680.9 
       0.093       93    436.86457    1.5173593 -3.0379436e-11 3.1897026e-11     57.10648     57.10648   -930.95222   -930.95222 -5.47848e-11    -497263.4            0    1424680.9 
       0.094       94    436.86457    1.5043061 -2.008006e-11 1.5812165e-11     57.10648     57.10648   -930.95994   -930.95994 -2.4621712e-11    -497263.4            0    1424680.9 
       0.095       95    436.86457    1.4913525 -1.3110811e-11 1.4953933e-11     57.10648     57.10648   -930.96768   -930.96768 -2.3495275e-11    -497263.4            0    1424680.9 
       0.096       96    436.86457    1.4789968 -7.2284039e-12 7.8483787e-12     57.10648     57.10648    -930.9751    -930.9751 -2.0403917e-11    -497263.4            0    1424680.9 
       0.097       97    436.86457     1.466123 -1.5479997e-12 3.0121895e-12     57.10648     57.10648   -930.98279   -930.98279 -2.1212147e-11    -497263.4            0    1424680.9 
       0.098       98    436.86457    1.4538862 2.778146e-12 4.1627502e-12     57.10648     57.10648   -930.99003   -930.99003 -2.6667248e-11    -497263.4            0    1424680.9 
       0.099       99    436.86457    1.4424193 1.6373131e-12 1.4112161e-12     57.10648     57.10648   -930.99682   -930.99682 -1.8309839e-11    -497263.4            0    1424680.9 
         0.1      100    436.86457    1.4296302 3.9073535e-12 3.2452931e-12     57.10648     57.10648   -931.00448   -931.00448 -1.2388847e-11    -497263.4            0    1424680.9 
       0.101      101    436.86457    1.4174309 1.529463e-11 1.1114288e-11     57.10648     57.10648    -931.0118    -931.0118 -1.8610787e-11    -497263.4            0    1424680.9 
       0.102      102    436.86457    1.4060175 1.1913988e-11 1.3482596e-11     57.10648     57.10648    -931.0186    -931.0186 -2.3008804e-11    -497263.4            0    1424680.9 
       0.103      103    436.86457    1.3941126 3.1509263e-12 6.9665374e-12     57.10648     57.10648   -931.02564   -931.02564 -2.8001806e-11    -497263.4            0    1424680.9 
       0.104      104    436.86457    1.3825626 1.0949411e-11 9.9762383e-12     57.10648     57.10648    -931.0325    -931.0325 -4.6816437e-11    -497263.4            0    1424680.9 
       0.105      105    436.86457    1.3711707 1.3131211e-11 1.0202184e-11     57.10648     57.10648   -931.03933   -931.03933 -3.6757196e-11    -497263.4            0    1424680.9 
       0.106      106    436.86457    1.3594078 1.375653e-11 5.4655543e-12     57.10648     57.10648   -931.04638   -931.04638 -2.6540591e-11    -497263.4            0    1424680.9 
       0.107      107    436.86457     1.348023 2.1318825e-11 6.7541942e-12     57.10648     57.10648   -931.05314   -931.05314 -3.8821146e-11    -497263.4            0    1424680.9 
       0.108      108    436.86457    1.3374162 1.7993084e-11 -5.2681686e-13     57.10648     57.10648   -931.05942   -931.05942 -2.6369672e-11    -497263.4            0    1424680.9 
       0.109      109    436.86457    1.3260807 1.3969913e-11 1.2287424e-12     57.10648     57.10648   -931.06616   -931.06616 -1.2360843e-11    -497263.4            0    1424680.9 
        0.11      110    436.86457    1.3147565 2.1270853e-11 1.2817619e-11     57.10648     57.10648   -931.07296   -931.07296 -2.0799636e-11    -497263.4            0    1424680.9 
       0.111      111    436.86457    1.3041892 2.2020694e-11 1.0502655e-11     57.10648     57.10648   -931.07928   -931.07928 -2.658833e-11    -497263.4            0    1424680.9 
       0.112      112    436.86457    1.2930604 2.0837966e-11 4.4807764e-12     57.10648     57.10648   -931.08588   -931.08588 -2.0012579e-11    -497263.4            0    1424680.9 
       0.113      113    436.86457    1.2827414 2.2755033e-11 9.5214068e-12     57.10648     57.10648   -931.09199   -931.09199 -1.8316561e-11    -497263.4            0    1424680.9 
       0.114      114    436.86457    1.2733914 1.9784055e-11 1.4998364e-12     57.10648     57.10648   -931.09757   -931.09757 -1.4703565e-11    -497263.4            0    1424680.9 
       0.115      115    436.86457    1.2653542 1.4918547e-11 -1.0972902e-11     57.10648     57.10648    -931.1024    -931.1024 -9.7175484e-12    -497263.4            0    1424680.9 
       0.116      116    436.86457    1.2606212 1.2761303e-11 -1.6714623e-11     57.10648     57.10648   -931.10522   -931.10522 -6.4769365e-12    -497263.4            0    1424680.9 
       0.117      117    436.86457    1.2584178 8.1991163e-12 -2.2524899e-11     57.10648     57.10648   -931.10652   -931.10652 -1.9259896e-12    -497263.4            0    1424680.9 
       0.118      118    436.86457    1.2573391 6.3073531e-12 -2.37448e-11     57.10648     57.10648   -931.10715   -931.10715 -1.0925381e-12    -497263.4            0    1424680.9 
       0.119      119    436.86457    1.2563422 5.0848667e-12 -2.2134969e-11     57.10648     57.10648   -931.10775   -931.10775 -1.7467115e-12    -497263.4            0    1424680.9 
        0.12      120    436.86457    1.2537194 4.3091908e-12 -1.8405044e-11     57.10648     57.10648   -931.10933   -931.10933 -8.7774736e-12    -497263.4            0    1424680.9 
       0.121      121    436.86457    1.2376269 1.886775e-11 2.1111643e-11     57.10648     57.10648   -931.11896   -931.11896 -5.5219195e-11    -497263.4            0    1424680.9 
       0.122      122    436.86457    1.1187321 2.1787231e-10 3.7261969e-10     57.10648     57.10648   -931.18982   -931.18982 -5.4149377e-10    -497263.4            0    1424680.9 
       0.123      123    436.86457   0.56328983 7.6950559e-11  9.79668e-10     57.10648     57.10648   -931.52064   -931.52064 -1.2884314e-09    -497263.4            0    1424680.9 
       0.124      124    436.86457  0.083724292 -7.5394972e-10 3.477695e-10     57.10648     57.10648   -931.80637   -931.80637 -3.7113793e-10    -497263.4            0    1424680.9 
       0.125      125    436.86457  0.014872187 -9.3702294e-10 8.2433252e-11     57.10648     57.10648   -931.84747   -931.84747 -3.7040813e-11    -497263.4            0    1424680.9 
       0.126      126    436.86457 0.0071043508 -9.231016e-10 5.7493479e-11     57.10648     57.10648   -931.85214   -931.85214 -4.3171111e-12    -497263.4            0    1424680.9 
       0.127      127    436.86457   0.00453314 -8.5939433e-10 6.0066627e-11     57.10648     57.10648    -931.8537    -931.8537 -4.9855954e-12    -497263.4            0    1424680.9 
       0.128      128    436.86457 0.0015457985 -7.3096392e-10 7.6018586e-11     57.10648     57.10648   -931.85548   -931.85548 -2.3372712e-12    -497263.4            0    1424680.9 
       0.129      129    436.86457 0.00058646072 -6.7048249e-10 9.614562e-11     57.10648     57.10648   -931.85604   -931.85604 2.8683673e-13    -497263.4            0    1424680.9 
        0.13      130    436.86457 0.00043979258 -6.4262023e-10 1.2251955e-10     57.10648     57.10648   -931.85612   -931.85612 -6.20588e-13    -497263.4            0    1424680.9 
       0.131      131    436.86457 0.00026781222 -5.7648545e-10 1.840301e-10     57.10648     57.10648   -931.85622   -931.85622 1.0488464e-12    -497263.4            0    1424680.9 
Loop time of 15.5171 on 64 procs for 131 steps with 120800 atoms

84.6% CPU use with 64 MPI tasks x 1 OpenMP threads

Minimization stats:
  Stopping criterion = energy tolerance
  Energy initial, next-to-last, final = 
     -497261.355337392  -497263.401315488  -497263.401315488
  Force two-norm initial, final = 7.1080974 2.5908874e-05
  Force max component initial, final = 0.19826945 2.9338512e-07
  Final line search alpha, max atom move = 1.0000000 2.9338512e-07
  Iterations, force evaluations = 131 262

MPI task timing breakdown:
Section |  min time  |  avg time  |  max time  |%varavg| %total
---------------------------------------------------------------
Pair    | 8.2019     | 8.7489     | 9.24       |   8.6 | 56.38
Neigh   | 0          | 0          | 0          |   0.0 |  0.00
Comm    | 3.4002     | 3.5396     | 3.6828     |   4.1 | 22.81
Output  | 0.48735    | 0.4895     | 0.49388    |   0.1 |  3.15
Modify  | 0          | 0          | 0          |   0.0 |  0.00
Other   |            | 2.739      |            |       | 17.65

Nlocal:        1887.50 ave        2000 max        1600 min
Histogram: 4 0 0 0 0 0 0 56 0 4
Nghost:        5147.12 ave        5315 max        4353 min
Histogram: 4 0 0 4 0 0 0 16 4 36
Neighs:         0.00000 ave           0 max           0 min
Histogram: 64 0 0 0 0 0 0 0 0 0
FullNghs:      315025.0 ave      336000 max      252200 min
Histogram: 4 0 0 0 0 0 4 52 0 4

Total # of neighbors = 20161600
Ave neighs/atom = 166.90066
Neighbor list builds = 0
Dangerous builds = 0
WARNING: Using 'neigh_modify every 1 delay 0 check yes' setting during minimization (../min.cpp:188)
Setting up cg/kk style minimization ...
  Unit style    : metal
  Current step  : 131
Per MPI rank memory allocation (min/avg/max) = 2.333 | 2.508 | 2.547 Mbytes
Time Step Lx Pxx Pxy Pxz Ly Lz Pyy Pzz Pyz TotEng Temp Volume 
       0.131      131    436.86457 0.00026781222 -5.7651581e-10 1.8407417e-10     57.10648     57.10648   -931.85622   -931.85622 1.174055e-12    -497263.4            0    1424680.9 
       0.132      132    436.86457 0.0002500085 -5.6402325e-10 1.8747632e-10     57.10648     57.10648   -931.85623   -931.85623 -8.8873969e-14    -497263.4            0    1424680.9 
Loop time of 0.216214 on 64 procs for 1 steps with 120800 atoms

84.7% CPU use with 64 MPI tasks x 1 OpenMP threads

Minimization stats:
  Stopping criterion = energy tolerance
  Energy initial, next-to-last, final = 
     -497263.401315488  -497263.401315488  -497263.401315488
  Force two-norm initial, final = 2.5908874e-05 1.3023413e-05
  Force max component initial, final = 2.9338512e-07 1.6348519e-07
  Final line search alpha, max atom move = 1.0000000 1.6348519e-07
  Iterations, force evaluations = 1 2

MPI task timing breakdown:
Section |  min time  |  avg time  |  max time  |%varavg| %total
---------------------------------------------------------------
Pair    | 0.071751   | 0.10395    | 0.14936    |   5.8 | 48.08
Neigh   | 0          | 0          | 0          |   0.0 |  0.00
Comm    | 0.032435   | 0.071081   | 0.097915   |   8.2 | 32.88
Output  | 0          | 0          | 0          |   0.0 |  0.00
Modify  | 0          | 0          | 0          |   0.0 |  0.00
Other   |            | 0.04119    |            |       | 19.05

Nlocal:        1887.50 ave        2007 max        1594 min
Histogram: 4 0 0 0 0 0 0 56 0 4
Nghost:        5147.12 ave        5329 max        4348 min
Histogram: 4 0 0 4 0 0 0 16 4 36
Neighs:         0.00000 ave           0 max           0 min
Histogram: 64 0 0 0 0 0 0 0 0 0
FullNghs:      315025.0 ave      337176 max      251185 min
Histogram: 4 0 0 0 0 3 1 41 11 4

Total # of neighbors = 20161600
Ave neighs/atom = 166.90066
Neighbor list builds = 0
Dangerous builds = 0
436.864572 57.10648 0.000250008495264334 1.78037217302482e-05 0 0.132 0
436.864572 57.10648 0.000250008495264334 1.78037217302482e-05 0 0.132 0
System init for write_data ...
Setting up Verlet run ...
  Unit style    : metal
  Current step  : 132
  Time step     : 0.001
Per MPI rank memory allocation (min/avg/max) = 1.901 | 2.023 | 2.050 Mbytes
Time Step Lx Pxx Pxy Pxz Ly Lz Pyy Pzz Pyz TotEng Temp Volume 
           0      132    436.86457 0.0002500085 -5.6400619e-10 1.8793555e-10     57.10648     57.10648   -931.85623   -931.85623 8.1887247e-14    -497263.4            0    1424680.9 
       0.001      133    436.90826 0.00024997575 -5.6387336e-10 1.8756727e-10     57.10648     57.10648   -931.76306   -931.76306 -2.1542735e-15    -497263.4 9.3753863e-16    1424823.4 
Loop time of 0.0630036 on 64 procs for 1 steps with 120800 atoms

Performance: 1.371 ns/day, 17.501 hours/ns, 15.872 timesteps/s
85.3% CPU use with 64 MPI tasks x 1 OpenMP threads

MPI task timing breakdown:
Section |  min time  |  avg time  |  max time  |%varavg| %total
---------------------------------------------------------------
Pair    | 0.027641   | 0.032767   | 0.038949   |   1.6 | 52.01
Neigh   | 0          | 0          | 0          |   0.0 |  0.00
Comm    | 0.013604   | 0.016344   | 0.022399   |   1.9 | 25.94
Output  | 0.0036004  | 0.0054764  | 0.0078993  |   1.5 |  8.69
Modify  | 0.0024357  | 0.0047915  | 0.0065781  |   1.7 |  7.61
Other   |            | 0.003625   |            |       |  5.75

Nlocal:        1887.50 ave        2005 max        1595 min
Histogram: 4 0 0 0 0 0 0 56 0 4
Nghost:        5147.12 ave        5328 max        4348 min
Histogram: 4 0 0 4 0 0 0 16 4 36
Neighs:         0.00000 ave           0 max           0 min
Histogram: 64 0 0 0 0 0 0 0 0 0
FullNghs:      315025.0 ave      336840 max      251370 min
Histogram: 4 0 0 0 0 2 2 38 14 4

Total # of neighbors = 20161600
Ave neighs/atom = 166.90066
Neighbor list builds = 0
Dangerous builds = 0
436.9082584572 57.10648 0.000249975746064289 1.78364709302928e-05 9.99950003332973e-05 0.001 9.37538632664325e-16
run 1 end
WARNING: Using 'neigh_modify every 1 delay 0 check yes' setting during minimization (../min.cpp:188)
Setting up cg/kk style minimization ...
  Unit style    : metal
  Current step  : 133
Per MPI rank memory allocation (min/avg/max) = 2.333 | 2.508 | 2.547 Mbytes
Time Step Lx Pxx Pxy Pxz Ly Lz Pyy Pzz Pyz TotEng Temp Volume 
       0.001      133    436.90826   -239.09474 -5.6518686e-10 1.8831793e-10     57.10648     57.10648   -1074.4568   -1074.4568 -3.4376852e-13   -497263.39 9.3753863e-16    1424823.4 
       0.002      134    436.90826   -236.67625 -5.1863588e-10 2.0026145e-10     57.10648     57.10648   -1072.6947   -1072.6947 -2.2891855e-12   -497263.39 9.3753863e-16    1424823.4 
       0.003      135    436.90826   -234.22434 -4.2502501e-10 2.4494283e-10     57.10648     57.10648   -1071.3112   -1071.3112 -2.3417661e-11   -497263.39 9.3753863e-16    1424823.4 
       0.004      136    436.90826    -231.8014 -2.1770694e-10 6.0465658e-10     57.10648     57.10648   -1069.8304   -1069.8304 -3.039442e-10   -497263.39 9.3753863e-16    1424823.4 
       0.005      137    436.90826   -229.40752 8.7326183e-10 4.5155305e-09     57.10648     57.10648   -1068.4246   -1068.4246 -3.6633687e-09   -497263.39 9.3753863e-16    1424823.4 
       0.006      138    436.90826   -227.04897 1.0299562e-08 4.4874745e-08     57.10648     57.10648   -1067.0122   -1067.0122 -3.9792041e-08   -497263.39 9.3753863e-16    1424823.4 
       0.007      139    436.90826   -224.77883 8.3478293e-08 3.8434872e-07     57.10648     57.10648   -1065.6564   -1065.6564 -3.5369539e-07   -497263.39 9.3753863e-16    1424823.4 
       0.008      140    436.90826   -222.82526 3.0203405e-07 1.5083548e-06     57.10648     57.10648   -1064.5018   -1064.5018 -1.4332208e-06   -497263.39 9.3753863e-16    1424823.4 
       0.009      141    436.90826   -221.02007 1.4808554e-07 9.0604039e-07     57.10648     57.10648    -1063.424    -1063.424 -9.0956269e-07   -497263.39 9.3753863e-16    1424823.4 
        0.01      142    436.90826   -218.85114 9.3992981e-09 2.6400358e-07     57.10648     57.10648   -1062.1225   -1062.1225 -2.8802095e-07   -497263.39 9.3753863e-16    1424823.4 
       0.011      143    436.90826   -216.60782 -2.0952346e-08 3.7737561e-07     57.10648     57.10648   -1060.8011   -1060.8011 -3.1762252e-07   -497263.39 9.3753863e-16    1424823.4 
       0.012      144    436.90826   -214.63055 -9.7631496e-08 9.8248995e-07     57.10648     57.10648   -1059.6137   -1059.6137 -7.0748953e-07   -497263.39 9.3753863e-16    1424823.4 
       0.013      145    436.90826    -212.7815 -1.4988715e-07 5.6751653e-07     57.10648     57.10648   -1058.5077   -1058.5077 -4.4979472e-07   -497263.39 9.3753863e-16    1424823.4 
       0.014      146    436.90826   -210.59927 -1.6522894e-07 2.0422052e-07     57.10648     57.10648   -1057.2218   -1057.2218 -2.06956e-07   -497263.39 9.3753863e-16    1424823.4 
       0.015      147    436.90826    -208.4575 -2.8481324e-07 3.2537164e-07     57.10648     57.10648   -1055.9346   -1055.9346 -2.7652254e-07   -497263.39 9.3753863e-16    1424823.4 
       0.016      148    436.90826    -206.6214 -2.4848889e-07 4.026245e-07     57.10648     57.10648   -1054.8405   -1054.8405 -3.4905724e-07   -497263.39 9.3753863e-16    1424823.4 
       0.017      149    436.90826   -204.56043 -1.1809229e-07 1.8664981e-07     57.10648     57.10648   -1053.6234   -1053.6234 -2.1585672e-07   -497263.39 9.3753863e-16    1424823.4 
       0.018      150    436.90826   -202.38227 -2.5184426e-07 1.8409267e-07     57.10648     57.10648   -1052.3157   -1052.3157 -1.6977613e-07   -497263.39 9.3753863e-16    1424823.4 
       0.019      151    436.90826   -200.48718 -4.2642205e-07 2.1618229e-07     57.10648     57.10648    -1051.188    -1051.188 -1.443644e-07   -497263.39 9.3753863e-16    1424823.4 
        0.02      152    436.90826   -198.50387 -1.8289327e-07 1.1978107e-07     57.10648     57.10648   -1050.0142   -1050.0142 -1.8921667e-07   -497263.39 9.3753863e-16    1424823.4 
       0.021      153    436.90826   -196.33411 -6.4023601e-08 1.9742679e-07     57.10648     57.10648   -1048.7137   -1048.7137 -4.1651182e-07   -497263.39 9.3753863e-16    1424823.4 
       0.022      154    436.90826   -194.38752 -1.3589059e-08 3.802394e-07     57.10648     57.10648   -1047.5551   -1047.5551 -7.4452757e-07   -497263.39 9.3753863e-16    1424823.4 
       0.023      155    436.90826   -192.43867 1.1992517e-08 2.3988297e-07     57.10648     57.10648      -1046.4      -1046.4 -4.6228561e-07   -497263.39 9.3753863e-16    1424823.4 
       0.024      156    436.90826   -190.29193 6.0121803e-08 2.2714951e-07     57.10648     57.10648   -1045.1156   -1045.1156 -3.6599516e-07   -497263.39 9.3753863e-16    1424823.4 
       0.025      157    436.90826   -188.31269 1.2712867e-07 3.6577634e-07     57.10648     57.10648   -1043.9365   -1043.9365 -5.0737213e-07   -497263.39 9.3753863e-16    1424823.4 
       0.026      158    436.90826   -186.37506 7.0924002e-08 2.3038882e-07     57.10648     57.10648   -1042.7869   -1042.7869 -3.8085963e-07   -497263.39 9.3753863e-16    1424823.4 
       0.027      159    436.90826   -184.25554 6.9386353e-08 1.7890259e-07     57.10648     57.10648   -1041.5211   -1041.5211 -3.2062453e-07   -497263.39 9.3753863e-16    1424823.4 
       0.028      160    436.90826   -182.25685 1.0765232e-07 3.1568367e-07     57.10648     57.10648   -1040.3289   -1040.3289 -3.7769286e-07   -497263.39 9.3753863e-16    1424823.4 
       0.029      161    436.90826   -180.31861 4.0672974e-08 2.8539101e-07     57.10648     57.10648   -1039.1782   -1039.1782 -2.5670057e-07   -497263.39 9.3753863e-16    1424823.4 
        0.03      162    436.90826   -178.22699 6.1672768e-08 2.6567942e-07     57.10648     57.10648   -1037.9312   -1037.9312 -2.2116187e-07   -497263.39 9.3753863e-16    1424823.4 
       0.031      163    436.90826   -176.21878 1.8170164e-07 4.3009292e-07     57.10648     57.10648   -1036.7319   -1036.7318 -3.7563349e-07   -497263.39 9.3753863e-16    1424823.4 
       0.032      164    436.90826    -174.2733 1.3827045e-07 4.2801562e-07     57.10648     57.10648   -1035.5761   -1035.5761 -4.5534195e-07   -497263.39 9.3753863e-16    1424823.4 
       0.033      165    436.90826   -172.19823 7.7976793e-08 3.7591156e-07     57.10648     57.10648    -1034.341    -1034.341 -5.0705698e-07   -497263.39 9.3753863e-16    1424823.4 
       0.034      166    436.90826   -170.17559 8.6286687e-08 4.8404448e-07     57.10648     57.10648   -1033.1319   -1033.1319 -6.1948629e-07   -497263.39 9.3753863e-16    1424823.4 
       0.035      167    436.90826   -168.22748 1.3810136e-08 4.494103e-07     57.10648     57.10648   -1031.9738   -1031.9738 -4.3502069e-07   -497263.39 9.3753863e-16    1424823.4 
       0.036      168    436.90826   -166.16773 -2.4257519e-08 3.3752015e-07     57.10648     57.10648   -1030.7496   -1030.7496 -2.7232567e-07   -497263.39 9.3753863e-16    1424823.4 
       0.037      169    436.90826   -164.12938 -1.6881977e-08 3.4997862e-07     57.10648     57.10648   -1029.5303   -1029.5303 -3.3085553e-07   -497263.39 9.3753863e-16    1424823.4 
       0.038      170    436.90826    -162.1767 -1.0712434e-07 3.0081094e-07     57.10648     57.10648   -1028.3687   -1028.3687 -3.3610664e-07   -497263.39 9.3753863e-16    1424823.4 
       0.039      171    436.90826   -160.12968 -2.0363573e-07 2.0612981e-07     57.10648     57.10648   -1027.1533   -1027.1533 -2.7505944e-07   -497263.39 9.3753863e-16    1424823.4 
        0.04      172    436.90826   -158.09045 -2.5961193e-07 2.3249826e-07     57.10648     57.10648   -1025.9333   -1025.9333 -2.9297035e-07   -497263.39 9.3753863e-16    1424823.4 
       0.041      173    436.90826   -156.14131 -2.2450464e-07 2.7471271e-07     57.10648     57.10648   -1024.7729   -1024.7729 -2.4247079e-07   -497263.39 9.3753863e-16    1424823.4 
       0.042      174    436.90826   -154.09216 -1.5050397e-07 2.5501635e-07     57.10648     57.10648    -1023.557    -1023.557 -2.4242743e-07   -497263.39 9.3753863e-16    1424823.4 
       0.043      175    436.90826   -152.04673 -1.6040928e-07 3.0403473e-07     57.10648     57.10648   -1022.3336   -1022.3336 -4.5151179e-07   -497263.39 9.3753863e-16    1424823.4 
       0.044      176    436.90826   -150.09942 -2.0572131e-07 3.2448008e-07     57.10648     57.10648   -1021.1733   -1021.1733 -5.2987229e-07   -497263.39 9.3753863e-16    1424823.4 
       0.045      177    436.90826   -148.04615 -1.6670681e-07 3.0731789e-07     57.10648     57.10648   -1019.9555   -1019.9555 -4.3972146e-07   -497263.39 9.3753863e-16    1424823.4 
       0.046      178    436.90826   -146.00248 -8.3824371e-08 3.7997614e-07     57.10648     57.10648   -1018.7336   -1018.7336 -5.0943661e-07   -497263.39 9.3753863e-16    1424823.4 
       0.047      179    436.90826   -144.06081 -1.02762e-08 3.6842599e-07     57.10648     57.10648   -1017.5759   -1017.5759 -4.0282384e-07   -497263.39 9.3753863e-16    1424823.4 
       0.048      180    436.90826   -142.00433 6.321822e-08 3.5796064e-07     57.10648     57.10648   -1016.3562   -1016.3562 -1.9264596e-07    -497263.4 9.3753863e-16    1424823.4 
       0.049      181    436.90826   -139.96928 2.2260092e-07 4.6762787e-07     57.10648     57.10648   -1015.1403   -1015.1403 -6.5853755e-08    -497263.4 9.3753863e-16    1424823.4 
        0.05      182    436.90826   -138.02241 2.2342747e-07 3.4746637e-07     57.10648     57.10648   -1013.9787   -1013.9787 6.2434266e-08    -497263.4 9.3753863e-16    1424823.4 
       0.051      183    436.90826   -135.95269 1.850744e-07 2.089994e-07     57.10648     57.10648   -1012.7509   -1012.7509 7.4941961e-08    -497263.4 9.3753863e-16    1424823.4 
       0.052      184    436.90826   -133.93031 3.5420849e-07 2.474159e-07     57.10648     57.10648   -1011.5435   -1011.5435 -3.627349e-08    -497263.4 9.3753863e-16    1424823.4 
       0.053      185    436.90826   -131.98664 3.700209e-07 2.2651064e-07     57.10648     57.10648   -1010.3832   -1010.3832 -1.4207887e-07    -497263.4 9.3753863e-16    1424823.4 
       0.054      186    436.90826   -129.91375 2.8166724e-07 2.1059318e-07     57.10648     57.10648   -1009.1531   -1009.1531 -1.9190019e-07    -497263.4 9.3753863e-16    1424823.4 
       0.055      187    436.90826   -127.90863 3.1764021e-07 2.7090469e-07     57.10648     57.10648    -1007.957    -1007.957 -2.9387764e-07    -497263.4 9.3753863e-16    1424823.4 
       0.056      188    436.90826   -125.95405 2.2461986e-07 2.2670438e-07     57.10648     57.10648   -1006.7898   -1006.7898 -1.8407958e-07    -497263.4 9.3753863e-16    1424823.4 
       0.057      189    436.90826   -123.86574 1.4830518e-07 2.6785084e-07     57.10648     57.10648   -1005.5498   -1005.5498 3.6225997e-08    -497263.4 9.3753863e-16    1424823.4 
       0.058      190    436.90826   -121.86506 1.8914506e-07 4.2973258e-07     57.10648     57.10648   -1004.3573   -1004.3573 2.1447602e-07    -497263.4 9.3753863e-16    1424823.4 
       0.059      191    436.90826   -119.90597 1.0293355e-07 3.4649297e-07     57.10648     57.10648   -1003.1874   -1003.1874 1.0763436e-07    -497263.4 9.3753863e-16    1424823.4 
        0.06      192    436.90826   -117.81874 -3.2250921e-08 2.9715932e-07     57.10648     57.10648   -1001.9471   -1001.9471 -9.3248054e-08    -497263.4 9.3753863e-16    1424823.4 
       0.061      193    436.90826   -115.82772 -1.0286417e-07 3.8002101e-07     57.10648     57.10648   -1000.7613   -1000.7613 -2.163055e-07    -497263.4 9.3753863e-16    1424823.4 
       0.062      194    436.90826   -113.86175 -6.0985844e-08 2.9054516e-07     57.10648     57.10648   -999.58732   -999.58732 -9.9849974e-08    -497263.4 9.3753863e-16    1424823.4 
       0.063      195    436.90826   -111.77875 -5.2248188e-08 2.5976059e-07     57.10648     57.10648   -998.34847   -998.34847 -8.5406549e-09    -497263.4 9.3753863e-16    1424823.4 
       0.064      196    436.90826   -109.79707 -8.485701e-08 3.3554121e-07     57.10648     57.10648   -997.16913   -997.16913 -9.3794771e-08    -497263.4 9.3753863e-16    1424823.4 
       0.065      197    436.90826   -107.82373 -8.6988138e-08 2.6489358e-07     57.10648     57.10648   -995.99107   -995.99107 -2.265997e-07    -497263.4 9.3753863e-16    1424823.4 
       0.066      198    436.90826   -105.74099 -1.0632235e-07 2.707857e-07     57.10648     57.10648   -994.75121   -994.75121 -3.1863273e-07    -497263.4 9.3753863e-16    1424823.4 
       0.067      199    436.90826   -103.75369 -9.5830149e-08 4.0822109e-07     57.10648     57.10648   -993.56929   -993.56929 -3.8163076e-07    -497263.4 9.3753863e-16    1424823.4 
       0.068      200    436.90826   -101.77384 -3.2181632e-08 3.7182752e-07     57.10648     57.10648    -992.3878   -992.38779 -2.3428687e-07    -497263.4 9.3753863e-16    1424823.4 
       0.069      201    436.90826   -99.700473 -5.683559e-08 3.6833354e-07     57.10648     57.10648   -991.15234   -991.15234 -3.7966262e-08    -497263.4 9.3753863e-16    1424823.4 
        0.07      202    436.90826   -97.717398 -1.4662562e-07 4.8196317e-07     57.10648     57.10648   -989.97354   -989.97354 1.6641869e-07    -497263.4 9.3753863e-16    1424823.4 
       0.071      203    436.90826   -95.736329 -1.3830101e-07 4.4000257e-07     57.10648     57.10648   -988.79197   -988.79197 1.7305798e-07    -497263.4 9.3753863e-16    1424823.4 
       0.072      204    436.90826   -93.664005 -1.135667e-07 4.2817329e-07     57.10648     57.10648   -987.55596   -987.55596 3.2979968e-08    -497263.4 9.3753863e-16    1424823.4 
       0.073      205    436.90826   -91.673788 -1.4267894e-07 4.7018406e-07     57.10648     57.10648   -986.37333   -986.37333 -1.5443547e-07    -497263.4 9.3753863e-16    1424823.4 
       0.074      206    436.90826   -89.698452 -1.4445368e-07 3.584053e-07     57.10648     57.10648    -985.1959    -985.1959 -2.2225454e-07    -497263.4 9.3753863e-16    1424823.4 
       0.075      207    436.90826    -87.63578 -1.4088605e-07 3.2288422e-07     57.10648     57.10648   -983.96465   -983.96464 -2.2329069e-07    -497263.4 9.3753863e-16    1424823.4 
       0.076      208    436.90826   -85.643122 -1.6468698e-07 4.1559722e-07     57.10648     57.10648    -982.7807    -982.7807 -2.3345363e-07    -497263.4 9.3753863e-16    1424823.4 
       0.077      209    436.90826   -83.668008 -1.2413913e-07 3.9338406e-07     57.10648     57.10648   -981.60421   -981.60421 -1.3704429e-07    -497263.4 9.3753863e-16    1424823.4 
       0.078      210    436.90826    -81.60261 -4.1012906e-08 3.6188645e-07     57.10648     57.10648   -980.37054   -980.37054 2.0595711e-09    -497263.4 9.3753863e-16    1424823.4 
       0.079      211    436.90826   -79.601545 2.4131901e-08 3.9793651e-07     57.10648     57.10648    -979.1815    -979.1815  1.31461e-07    -497263.4 9.3753863e-16    1424823.4 
        0.08      212    436.90826   -77.625802 6.5047452e-09 3.286641e-07     57.10648     57.10648   -978.00538   -978.00538 1.043866e-07    -497263.4 9.3753863e-16    1424823.4 
       0.081      213    436.90826   -75.557254 -5.2039618e-08 2.9542567e-07     57.10648     57.10648   -976.76938   -976.76938 -4.1154744e-08    -497263.4 9.3753863e-16    1424823.4 
       0.082      214    436.90826   -73.555263 -1.241992e-07 3.4381601e-07     57.10648     57.10648   -975.57946   -975.57946 -2.3842934e-07    -497263.4 9.3753863e-16    1424823.4 
       0.083      215    436.90826   -71.589685 -1.4352356e-07 2.8989037e-07     57.10648     57.10648   -974.41003   -974.41003 -2.6723434e-07    -497263.4 9.3753863e-16    1424823.4 
       0.084      216    436.90826   -69.525963 -1.1122699e-07 2.9286384e-07     57.10648     57.10648   -973.17679   -973.17679 -1.469976e-07    -497263.4 9.3753863e-16    1424823.4 
       0.085      217    436.90826   -67.522323 -1.0566476e-07 3.9146163e-07     57.10648     57.10648    -971.9853    -971.9853 -5.1118767e-08    -497263.4 9.3753863e-16    1424823.4 
       0.086      218    436.90826   -65.543835 -1.402439e-07 3.2559531e-07     57.10648     57.10648   -970.80876   -970.80876 -1.0224208e-07    -497263.4 9.3753863e-16    1424823.4 
       0.087      219    436.90826   -63.477732 -1.6803723e-07  2.51014e-07     57.10648     57.10648   -969.57422   -969.57422 -2.2828853e-07    -497263.4 9.3753863e-16    1424823.4 
       0.088      220    436.90826   -61.482503 -1.8762964e-07 2.5726408e-07     57.10648     57.10648   -968.38704   -968.38704 -2.3807624e-07    -497263.4 9.3753863e-16    1424823.4 
       0.089      221    436.90826   -59.496592 -1.9036906e-07 2.305555e-07     57.10648     57.10648   -967.20654   -967.20654 -4.7696388e-08    -497263.4 9.3753863e-16    1424823.4 
        0.09      222    436.90826   -57.434516 -1.8847722e-07 2.323227e-07     57.10648     57.10648   -965.97476   -965.97476 1.099081e-07    -497263.4 9.3753863e-16    1424823.4 
       0.091      223    436.90826   -55.454744 -1.9538851e-07 2.0103835e-07     57.10648     57.10648   -964.79599   -964.79599 2.3546665e-07    -497263.4 9.3753863e-16    1424823.4 
       0.092      224    436.90826   -53.450909 -2.1422294e-07 1.1390243e-07     57.10648     57.10648   -963.60515   -963.60515 2.8195822e-07    -497263.4 9.3753863e-16    1424823.4 
       0.093      225    436.90826   -51.382894 -2.1748003e-07 1.2572857e-07     57.10648     57.10648   -962.37029   -962.37029 2.9065056e-07    -497263.4 9.3753863e-16    1424823.4 
       0.094      226    436.90826   -49.418446 -1.7166746e-07 1.5078093e-07     57.10648     57.10648   -961.19999   -961.19999 1.2856504e-07    -497263.4 9.3753863e-16    1424823.4 
       0.095      227    436.90826   -47.401961 -1.2210272e-07 1.3186118e-07     57.10648     57.10648   -960.00169   -960.00169 -9.0421342e-08    -497263.4 9.3753863e-16    1424823.4 
       0.096      228    436.90826   -45.332997 -8.4114163e-08 2.1354641e-07     57.10648     57.10648   -958.76685   -958.76685 -1.7004094e-07    -497263.4 9.3753863e-16    1424823.4 
       0.097      229    436.90826    -43.39449 -2.7599583e-08 2.467063e-07     57.10648     57.10648   -957.61144   -957.61144 -1.3163296e-07    -497263.4 9.3753863e-16    1424823.4 
       0.098      230    436.90826   -41.375306 -2.5799765e-08 1.2802082e-07     57.10648     57.10648   -956.41136   -956.41136 -8.5236667e-08    -497263.4 9.3753863e-16    1424823.4 
       0.099      231    436.90826   -39.302976 -4.0905145e-08 1.5598371e-07     57.10648     57.10648    -955.1753    -955.1753 -1.3219863e-07    -497263.4 9.3753863e-16    1424823.4 
         0.1      232    436.90826   -37.369141 -3.8077744e-08 1.8715565e-07     57.10648     57.10648    -954.0222    -954.0222 -1.5056894e-07    -497263.4 9.3753863e-16    1424823.4 
       0.101      233    436.90826   -35.337157 -6.2417781e-08 7.7093363e-08     57.10648     57.10648   -952.81408   -952.81408 -7.9631516e-08    -497263.4 9.3753863e-16    1424823.4 
       0.102      234    436.90826    -33.24629 -1.5433762e-07 7.0992936e-08     57.10648     57.10648   -951.56781   -951.56781 -5.309889e-08    -497263.4 9.3753863e-16    1424823.4 
       0.103      235    436.90826   -31.306449 -2.1737515e-07 1.3693065e-07     57.10648     57.10648   -950.41086   -950.41086 -9.8112694e-08    -497263.4 9.3753863e-16    1424823.4 
       0.104      236    436.90826   -29.297149 -1.1213563e-07 1.1232936e-07     57.10648     57.10648   -949.21565   -949.21564 -1.6780266e-07    -497263.4 9.3753863e-16    1424823.4 
       0.105      237    436.90826   -27.213465 -5.4693979e-08 1.414427e-07     57.10648     57.10648   -947.97465   -947.97464 -2.4846699e-07    -497263.4 9.3753863e-16    1424823.4 
       0.106      238    436.90826   -25.249222 -9.853868e-08 2.0986275e-07     57.10648     57.10648   -946.80275   -946.80275 -2.3560326e-07    -497263.4 9.3753863e-16    1424823.4 
       0.107      239    436.90826   -23.253358 -1.1359273e-07 1.6055447e-07     57.10648     57.10648   -945.61495   -945.61495 -1.2600792e-07    -497263.4 9.3753863e-16    1424823.4 
       0.108      240    436.90826   -21.202222 -8.7941027e-08 1.5359291e-07     57.10648     57.10648   -944.39423   -944.39423 -1.3243386e-07    -497263.4 9.3753863e-16    1424823.4 
       0.109      241    436.90826   -19.209786 -6.6625718e-08 2.2860844e-07     57.10648     57.10648   -943.20528   -943.20528 -1.6971139e-07    -497263.4 9.3753863e-16    1424823.4 
        0.11      242    436.90826   -17.186398 -5.0827353e-08 2.9274625e-07     57.10648     57.10648   -942.00051   -942.00051 -1.1434632e-07    -497263.4 9.3753863e-16    1424823.4 
       0.111      243    436.90826   -15.179155 -9.9969391e-09 3.3536507e-07     57.10648     57.10648   -940.80649   -940.80649 -1.3447464e-08    -497263.4 9.3753863e-16    1424823.4 
       0.112      244    436.90826   -13.210829 3.5844969e-08 2.5923795e-07     57.10648     57.10648   -939.63216   -939.63216 6.2668179e-08    -497263.4 9.3753863e-16    1424823.4 
       0.113      245    436.90826   -11.143659 4.2311745e-08 1.7139238e-07     57.10648     57.10648   -938.40041   -938.40041 9.6132153e-08    -497263.4 9.3753863e-16    1424823.4 
       0.114      246    436.90826   -9.1010007 8.1692739e-08 1.7487807e-07     57.10648     57.10648   -937.18597   -937.18597 1.4872089e-07    -497263.4 9.3753863e-16    1424823.4 
       0.115      247    436.90826   -7.1834969 1.4205586e-07 1.7859667e-07     57.10648     57.10648   -936.04216   -936.04216 1.1083863e-07    -497263.4 9.3753863e-16    1424823.4 
       0.116      248    436.90826   -5.2207721 1.1681415e-07 1.2349912e-07     57.10648     57.10648   -934.87179   -934.87179 -1.3300359e-08    -497263.4 9.3753863e-16    1424823.4 
       0.117      249    436.90826   -3.3436514 6.2706389e-08 5.0242236e-08     57.10648     57.10648   -933.75632   -933.75632 -8.3829883e-08    -497263.4 9.3753863e-16    1424823.4 
       0.118      250    436.90826   -1.8026248 3.260296e-08 -1.6930171e-08     57.10648     57.10648   -932.83714   -932.83714 -6.4088348e-08    -497263.4 9.3753863e-16    1424823.4 
       0.119      251    436.90826  -0.71710331 4.7021569e-08 -3.6269849e-08     57.10648     57.10648   -932.18935   -932.18935 -2.1470556e-08    -497263.4 9.3753863e-16    1424823.4 
        0.12      252    436.90826  -0.17100331 3.9775729e-08 -5.6637217e-08     57.10648     57.10648   -931.86558   -931.86558 -8.9599677e-09    -497263.4 9.3753863e-16    1424823.4 
       0.121      253    436.90826  0.023207352 6.7124604e-09 -8.3860166e-08     57.10648     57.10648   -931.74956   -931.74956 -4.3194605e-09    -497263.4 9.3753863e-16    1424823.4 
       0.122      254    436.90826  0.079455407 -3.6872412e-09 -9.4011814e-08     57.10648     57.10648   -931.71566   -931.71566 -1.26309e-09    -497263.4 9.3753863e-16    1424823.4 
       0.123      255    436.90826   0.09088726 -4.6787352e-09 -9.5732832e-08     57.10648     57.10648   -931.70906   -931.70906 -2.9434382e-10    -497263.4 9.3753863e-16    1424823.4 
       0.124      256    436.90826   0.09280381 -4.5345205e-09 -9.560828e-08     57.10648     57.10648   -931.70794   -931.70794 -6.2737121e-11    -497263.4 9.3753863e-16    1424823.4 
       0.125      257    436.90826  0.093072791 -4.0778741e-09 -9.5095911e-08     57.10648     57.10648   -931.70774   -931.70774 -1.3170309e-11    -497263.4 9.3753863e-16    1424823.4 
       0.126      258    436.90826  0.093095916 -3.712559e-09 -9.4666058e-08     57.10648     57.10648   -931.70773   -931.70773 -1.4007317e-12    -497263.4 9.3753863e-16    1424823.4 
       0.127      259    436.90826   0.09309276 -3.4221132e-09 -9.4275595e-08     57.10648     57.10648   -931.70774   -931.70774 -1.416531e-13    -497263.4 9.3753863e-16    1424823.4 
       0.128      260    436.90826  0.093086013 -3.1626974e-09 -9.3878492e-08     57.10648     57.10648   -931.70774   -931.70774 1.3553575e-12    -497263.4 9.3753863e-16    1424823.4 
       0.129      261    436.90826  0.093071338 -2.7163796e-09 -9.3107991e-08     57.10648     57.10648   -931.70775   -931.70775 3.8943033e-13    -497263.4 9.3753863e-16    1424823.4 
        0.13      262    436.90826  0.092994778 -8.2174507e-10 -8.936554e-08     57.10648     57.10648   -931.70779   -931.70779 3.0208763e-13    -497263.4 9.3753863e-16    1424823.4 
Loop time of 15.5344 on 64 procs for 129 steps with 120800 atoms

85.6% CPU use with 64 MPI tasks x 1 OpenMP threads

Minimization stats:
  Stopping criterion = energy tolerance
  Energy initial, next-to-last, final = 
     -497263.390685608  -497263.401315486  -497263.401315486
  Force two-norm initial, final = 0.028976901 1.7006930e-05
  Force max component initial, final = 0.00099978810 1.8995903e-07
  Final line search alpha, max atom move = 1.0000000 1.8995903e-07
  Iterations, force evaluations = 129 258

MPI task timing breakdown:
Section |  min time  |  avg time  |  max time  |%varavg| %total
---------------------------------------------------------------
Pair    | 7.2419     | 8.2695     | 9.4871     |  23.6 | 53.23
Neigh   | 0          | 0          | 0          |   0.0 |  0.00
Comm    | 3.2153     | 3.886      | 5.6144     |  36.9 | 25.02
Output  | 0.47209    | 0.474      | 0.47741    |   0.1 |  3.05
Modify  | 0          | 0          | 0          |   0.0 |  0.00
Other   |            | 2.905      |            |       | 18.70

Nlocal:        1887.50 ave        2005 max        1595 min
Histogram: 4 0 0 0 0 0 0 56 0 4
Nghost:        5147.12 ave        5328 max        4348 min
Histogram: 4 0 0 4 0 0 0 16 4 36
Neighs:         0.00000 ave           0 max           0 min
Histogram: 64 0 0 0 0 0 0 0 0 0
FullNghs:      315025.0 ave      336840 max      251370 min
Histogram: 4 0 0 0 0 2 2 38 14 4

Total # of neighbors = 20161600
Ave neighs/atom = 166.90066
Neighbor list builds = 0
Dangerous builds = 0
436.9082584572 57.10648 0.0929947775962932 0.0927269653792986 9.99950003332973e-05 0.13 9.37538632664325e-16
minimize end
  using 1 OpenMP thread(s) per MPI task
Reading data file ...
  orthogonal box = (0.0000000 0.0000000 0.0000000) to (436.86457 57.106480 57.106480)
  16 by 2 by 2 MPI processor grid
  reading atoms ...
  120800 atoms
  reading velocities ...
  120800 velocities
  read_data CPU = 0.532 seconds
800 atoms in group source
800 atoms in group detector
0 atoms in group edge
0 atoms in group edge_buf
0 atoms in group buffer
WARNING: Using 'neigh_modify every 1 delay 0 check yes' setting during minimization (../min.cpp:188)
Neighbor list info ...
  update every 1 steps, delay 0 steps, check yes
  max neighbors/atom: 2000, page size: 100000
  master list distance cutoff = 7.6
  ghost atom cutoff = 7.6
  binsize = 7.6, bins = 58 8 8
  1 neighbor lists, perpetual/occasional/extra = 1 0 0
  (1) pair eam/alloy/kk, perpetual
      attributes: full, newton off, kokkos_device
      pair build: full/bin/kk/device
      stencil: full/bin/3d
      bin: kk/device
Setting up cg/kk style minimization ...
  Unit style    : metal
  Current step  : 0
Per MPI rank memory allocation (min/avg/max) = 2.301 | 2.470 | 2.508 Mbytes
Time Step Lx Pxx Pxy Pxz Ly Lz Pyy Pzz Pyz TotEng Temp Volume 
           0        0    436.86457 0.0002500085 -5.6395543e-10 1.8797456e-10     57.10648     57.10648   -931.85623   -931.85623 5.7735713e-14    -497263.4            0    1424680.9 
       0.001        1    436.86457 0.00024113688 -5.4803136e-10 1.9141064e-10     57.10648     57.10648   -931.85624   -931.85624 1.0276795e-13    -497263.4            0    1424680.9 
Loop time of 0.308063 on 64 procs for 1 steps with 120800 atoms

86.3% CPU use with 64 MPI tasks x 1 OpenMP threads

Minimization stats:
  Stopping criterion = energy tolerance
  Energy initial, next-to-last, final = 
     -497263.401315488  -497263.401315488  -497263.401315488
  Force two-norm initial, final = 1.3023413e-05 1.1885047e-05
  Force max component initial, final = 1.6348519e-07 1.4440745e-07
  Final line search alpha, max atom move = 1.0000000 1.4440745e-07
  Iterations, force evaluations = 1 2

MPI task timing breakdown:
Section |  min time  |  avg time  |  max time  |%varavg| %total
---------------------------------------------------------------
Pair    | 0.081007   | 0.13607    | 0.19695    |  10.3 | 44.17
Neigh   | 0          | 0          | 0          |   0.0 |  0.00
Comm    | 0.046399   | 0.12647    | 0.18257    |  13.6 | 41.05
Output  | 0          | 0          | 0          |   0.0 |  0.00
Modify  | 0          | 0          | 0          |   0.0 |  0.00
Other   |            | 0.04552    |            |       | 14.78

Nlocal:        1887.50 ave        2005 max        1595 min
Histogram: 4 0 0 0 0 0 0 56 0 4
Nghost:        5147.12 ave        5328 max        4348 min
Histogram: 4 0 0 4 0 0 0 16 4 36
Neighs:         0.00000 ave           0 max           0 min
Histogram: 64 0 0 0 0 0 0 0 0 0
FullNghs:      315025.0 ave      336840 max      251370 min
Histogram: 4 0 0 0 0 2 2 38 14 4

Total # of neighbors = 20161600
Ave neighs/atom = 166.90066
Neighbor list builds = 0
Dangerous builds = 0
Setting up Verlet run ...
  Unit style    : metal
  Current step  : 1
  Time step     : 0.001
Per MPI rank memory allocation (min/avg/max) = 1.901 | 2.023 | 2.050 Mbytes
Time Step Lx Pxx Pxy Pxz Ly Lz Pyy Pzz Pyz TotEng Temp Volume 
           0        1    436.86457 0.00024113688 -5.4798365e-10 1.9103545e-10     57.10648     57.10648   -931.85624   -931.85624 2.7758126e-13    -497263.4            0    1424680.9 
       0.001        2    436.95194 0.00024108712 -5.4723776e-10 1.910453e-10     57.10648     57.10648   -931.66991   -931.66991 -3.1991253e-13    -497263.4 7.8068939e-16    1424965.9 
Loop time of 0.063424 on 64 procs for 1 steps with 120800 atoms

Performance: 1.362 ns/day, 17.618 hours/ns, 15.767 timesteps/s
85.8% CPU use with 64 MPI tasks x 1 OpenMP threads

MPI task timing breakdown:
Section |  min time  |  avg time  |  max time  |%varavg| %total
---------------------------------------------------------------
Pair    | 0.029884   | 0.035639   | 0.040914   |   1.8 | 56.19
Neigh   | 0          | 0          | 0          |   0.0 |  0.00
Comm    | 0.012196   | 0.01397    | 0.015447   |   0.5 | 22.03
Output  | 0.0036426  | 0.0065726  | 0.013306   |   2.9 | 10.36
Modify  | 0.00154    | 0.003572   | 0.0051376  |   1.5 |  5.63
Other   |            | 0.003671   |            |       |  5.79

Nlocal:        1887.50 ave        2008 max        1593 min
Histogram: 4 0 0 0 0 0 0 56 0 4
Nghost:        5147.12 ave        5329 max        4347 min
Histogram: 4 0 0 4 0 0 0 16 4 36
Neighs:         0.00000 ave           0 max           0 min
Histogram: 64 0 0 0 0 0 0 0 0 0
FullNghs:      315025.0 ave      337344 max      251186 min
Histogram: 4 0 0 0 0 2 2 42 10 4

Total # of neighbors = 20161600
Ave neighs/atom = 166.90066
Neighbor list builds = 0
Dangerous builds = 0
436.9519449144 57.10648 0.000241087118452457 4.97644466262385e-08 0.000199980002666245 0.001 7.80689393103393e-16
run 1 end
WARNING: Using 'neigh_modify every 1 delay 0 check yes' setting during minimization (../min.cpp:188)
Setting up cg/kk style minimization ...
  Unit style    : metal
  Current step  : 2
Per MPI rank memory allocation (min/avg/max) = 2.333 | 2.508 | 2.547 Mbytes
Time Step Lx Pxx Pxy Pxz Ly Lz Pyy Pzz Pyz TotEng Temp Volume 
       0.001        2    436.95194   -478.25075 -5.4813972e-10 1.9162485e-10     57.10648     57.10648   -1217.0091   -1217.0091 6.6065108e-13   -497263.36 7.8068939e-16    1424965.9 
       0.002        3    436.95194   -473.41127 -5.0320648e-10 2.0293492e-10     57.10648     57.10648    -1213.484    -1213.484 -2.7279582e-12   -497263.36 7.8068939e-16    1424965.9 
       0.003        4    436.95194   -468.50357 -4.1203908e-10 2.5315921e-10     57.10648     57.10648   -1210.7154   -1210.7154 -3.1308939e-11   -497263.36 7.8068939e-16    1424965.9 
       0.004        5    436.95194   -463.65991 -1.9135073e-10 7.0561587e-10     57.10648     57.10648   -1207.7564   -1207.7564 -4.0610456e-10   -497263.36 7.8068939e-16    1424965.9 
       0.005        6    436.95194   -458.87215 1.0905888e-09 5.7205984e-09     57.10648     57.10648   -1204.9461   -1204.9461 -4.8739033e-09   -497263.36 7.8068939e-16    1424965.9 
       0.006        7    436.95194   -454.14183 1.2586608e-08 5.8272328e-08     57.10648     57.10648   -1202.1136   -1202.1136 -5.321079e-08   -497263.36 7.8068939e-16    1424965.9 
       0.007        8    436.95194     -449.504 1.113716e-07 5.4600063e-07     57.10648     57.10648   -1199.3451   -1199.3451 -5.1342689e-07   -497263.36 7.8068939e-16    1424965.9 
       0.008        9    436.95194   -445.17713 6.9621818e-07 3.6700768e-06     57.10648     57.10648   -1196.7896   -1196.7895 -3.532954e-06   -497263.36 7.8068939e-16    1424965.9 
       0.009       10    436.95194   -441.60585 1.0908417e-06 6.449802e-06     57.10648     57.10648   -1194.6494   -1194.6494 -6.3847547e-06   -497263.36 7.8068939e-16    1424965.9 
        0.01       11    436.95194   -437.64846 1.9285253e-07 1.927739e-06     57.10648     57.10648   -1192.2801   -1192.2801 -2.0384077e-06   -497263.36 7.8068939e-16    1424965.9 
       0.011       12    436.95194   -433.12317 -7.3172307e-08 8.6646692e-07     57.10648     57.10648   -1189.6156   -1189.6156 -8.7804321e-07   -497263.36 7.8068939e-16    1424965.9 
       0.012       13    436.95194   -428.72517 -3.5792232e-07 2.423507e-06     57.10648     57.10648   -1186.9676   -1186.9676 -1.7910128e-06   -497263.36 7.8068939e-16    1424965.9 
       0.013       14    436.95194   -425.06848 -9.230307e-07 4.0278913e-06     57.10648     57.10648   -1184.7968   -1184.7968 -2.8529932e-06   -497263.36 7.8068939e-16    1424965.9 
       0.014       15    436.95194   -421.09123 -6.8888251e-07 1.2847867e-06     57.10648     57.10648   -1182.4484   -1182.4484 -1.1082362e-06   -497263.36 7.8068939e-16    1424965.9 
       0.015       16    436.95194   -416.59653 -7.1178308e-07 7.3865199e-07     57.10648     57.10648    -1179.744    -1179.744 -7.2407367e-07   -497263.36 7.8068939e-16    1424965.9 
       0.016       17    436.95194   -412.53022 -1.0714237e-06 1.8070793e-06     57.10648     57.10648    -1177.337    -1177.337 -1.3821304e-06   -497263.36 7.8068939e-16    1424965.9 
       0.017       18    436.95194    -408.8588 -6.6207237e-07 1.360421e-06     57.10648     57.10648   -1175.1598   -1175.1598 -1.1722564e-06   -497263.36 7.8068939e-16    1424965.9 
       0.018       19    436.95194   -404.52758 -5.9679991e-07 5.757803e-07     57.10648     57.10648   -1172.5591   -1172.5591 -6.2328616e-07   -497263.37 7.8068939e-16    1424965.9 
       0.019       20    436.95194   -400.27218 -1.4582193e-06 7.3807329e-07     57.10648     57.10648   -1170.0386   -1170.0386 -4.8260994e-07   -497263.37 7.8068939e-16    1424965.9 
        0.02       21    436.95194   -396.58856 -1.4481297e-06 7.8654197e-07     57.10648     57.10648   -1167.8492   -1167.8492 -7.0117737e-07   -497263.37 7.8068939e-16    1424965.9 
       0.021       22    436.95194      -392.44 -4.1905464e-07 5.5118829e-07     57.10648     57.10648   -1165.3636   -1165.3636 -1.0845764e-06   -497263.37 7.8068939e-16    1424965.9 
       0.022       23    436.95194   -388.13028 -1.4394326e-07 1.0848773e-06     57.10648     57.10648    -1162.807    -1162.807 -2.0775193e-06   -497263.37 7.8068939e-16    1424965.9 
       0.023       24    436.95194   -384.34406 -4.9813315e-08 1.5662614e-06     57.10648     57.10648   -1160.5557   -1160.5556 -2.5922199e-06   -497263.37 7.8068939e-16    1424965.9 
       0.024       25    436.95194   -380.33155 3.4585174e-08 8.4918248e-07     57.10648     57.10648   -1158.1557   -1158.1557 -1.3268604e-06   -497263.37 7.8068939e-16    1424965.9 
       0.025       26    436.95194   -376.03597 1.8563605e-07 9.528068e-07     57.10648     57.10648   -1155.6025   -1155.6025 -1.3036886e-06   -497263.37 7.8068939e-16    1424965.9 
       0.026       27    436.95194   -372.14801 2.8789233e-07 1.3672314e-06     57.10648     57.10648   -1153.2921   -1153.2921 -1.8165871e-06   -497263.37 7.8068939e-16    1424965.9 
       0.027       28    436.95194   -368.21695 1.0669934e-07 7.8817076e-07     57.10648     57.10648    -1150.944    -1150.944 -1.215533e-06   -497263.37 7.8068939e-16    1424965.9 
       0.028       29    436.95194   -363.96631 9.3248233e-08 8.1293799e-07     57.10648     57.10648   -1148.4125   -1148.4125 -9.523469e-07   -497263.37 7.8068939e-16    1424965.9 
       0.029       30    436.95194    -359.9988 1.1359371e-07 1.4935447e-06     57.10648     57.10648   -1146.0571   -1146.0571 -1.0172498e-06   -497263.37 7.8068939e-16    1424965.9 
        0.03       31    436.95194   -356.11281 3.7067629e-08 1.2490507e-06     57.10648     57.10648   -1143.7381   -1143.7381 -7.7701984e-07   -497263.37 7.8068939e-16    1424965.9 
       0.031       32    436.95194   -351.91786 2.3543163e-07 1.2032809e-06     57.10648     57.10648   -1141.2355   -1141.2355 -9.8642211e-07   -497263.37 7.8068939e-16    1424965.9 
       0.032       33    436.95194   -347.89136 5.5758482e-07 2.0142555e-06     57.10648     57.10648   -1138.8471   -1138.8471 -1.9448919e-06   -497263.37 7.8068939e-16    1424965.9 
       0.033       34    436.95194   -344.01461 2.5807219e-07 1.8683466e-06     57.10648     57.10648   -1136.5353   -1136.5353 -2.0960631e-06   -497263.37 7.8068939e-16    1424965.9 
       0.034       35    436.95194   -339.85412 -2.5063255e-08 1.4729869e-06     57.10648     57.10648   -1134.0499   -1134.0499 -1.7038566e-06   -497263.37 7.8068939e-16    1424965.9 
       0.035       36    436.95194   -335.78145 -9.9356472e-08 1.960106e-06     57.10648     57.10648   -1131.6353   -1131.6353 -1.6017968e-06   -497263.37 7.8068939e-16    1424965.9 
       0.036       37    436.95194   -331.91481 -2.9445826e-07 1.7655692e-06     57.10648     57.10648   -1129.3311   -1129.3311 -1.000969e-06   -497263.37 7.8068939e-16    1424965.9 
       0.037       38    436.95194   -327.77582 -3.9828845e-07 1.138981e-06     57.10648     57.10648   -1126.8563   -1126.8563 -7.3310412e-07   -497263.37 7.8068939e-16    1424965.9 
       0.038       39    436.95194   -323.66094 -6.9638498e-07 1.2332204e-06     57.10648     57.10648   -1124.4171   -1124.4171 -1.0966359e-06   -497263.37 7.8068939e-16    1424965.9 
       0.039       40    436.95194   -319.80214 -1.1711845e-06 1.1147508e-06     57.10648     57.10648   -1122.1187   -1122.1187 -1.0375911e-06   -497263.37 7.8068939e-16    1424965.9 
        0.04       41    436.95194   -315.69161 -1.1872442e-06 7.6803332e-07     57.10648     57.10648     -1119.66     -1119.66 -6.3621264e-07   -497263.37 7.8068939e-16    1424965.9 
       0.041       42    436.95194   -311.57033 -1.2603493e-06 1.1175235e-06     57.10648     57.10648   -1117.2162   -1117.2162 -6.7315625e-07   -497263.37 7.8068939e-16    1424965.9 
       0.042       43    436.95194   -307.70811 -1.115042e-06 1.3217628e-06     57.10648     57.10648   -1114.9172   -1114.9172 -7.8442905e-07   -497263.37 7.8068939e-16    1424965.9 
       0.043       44    436.95194   -303.59191 -9.480648e-07 1.0209233e-06     57.10648     57.10648   -1112.4549   -1112.4549 -1.0155611e-06   -497263.37 7.8068939e-16    1424965.9 
       0.044       45    436.95194    -299.4671 -1.3314142e-06 1.3390021e-06     57.10648     57.10648   -1110.0078   -1110.0078 -1.8400575e-06   -497263.37 7.8068939e-16    1424965.9 
       0.045       46    436.95194   -295.60469 -1.4069611e-06 1.5242266e-06     57.10648     57.10648   -1107.7099   -1107.7099 -1.8608917e-06   -497263.38 7.8068939e-16    1424965.9 
       0.046       47    436.95194   -291.48444 -9.2534654e-07 1.2655607e-06     57.10648     57.10648   -1105.2455   -1105.2455 -1.1955867e-06   -497263.38 7.8068939e-16    1424965.9 
       0.047       48    436.95194    -287.3751 -6.67108e-07 1.6100179e-06     57.10648     57.10648   -1102.8058   -1102.8058 -1.146723e-06   -497263.38 7.8068939e-16    1424965.9 
       0.048       49    436.95194   -283.51713 -3.9617664e-07 1.7069898e-06     57.10648     57.10648   -1100.5117   -1100.5117 -5.6942737e-07   -497263.38 7.8068939e-16    1424965.9 
       0.049       50    436.95194   -279.38755 -1.1068695e-07 1.4589663e-06     57.10648     57.10648   -1098.0427   -1098.0427 1.8849186e-07   -497263.38 7.8068939e-16    1424965.9 
        0.05       51    436.95194   -275.28993 1.7518648e-07 1.5605651e-06     57.10648     57.10648   -1095.6079   -1095.6079 7.5249581e-07   -497263.38 7.8068939e-16    1424965.9 
       0.051       52    436.95194   -271.41438 1.2477636e-07 1.054031e-06     57.10648     57.10648   -1093.3043   -1093.3043 7.9978831e-07   -497263.38 7.8068939e-16    1424965.9 
       0.052       53    436.95194   -267.28037 1.9005751e-07 7.3699746e-07     57.10648     57.10648   -1090.8339   -1090.8339 3.2733935e-07   -497263.38 7.8068939e-16    1424965.9 
       0.053       54    436.95194   -263.22287 7.0203287e-07 1.0531571e-06     57.10648     57.10648   -1088.4208   -1088.4208 -2.6829353e-07   -497263.38 7.8068939e-16    1424965.9 
       0.054       55    436.95194   -259.34274 5.7490563e-07 9.6030747e-07     57.10648     57.10648   -1086.1152   -1086.1152 -5.3181447e-07   -497263.38 7.8068939e-16    1424965.9 
       0.055       56    436.95194   -255.19958 1.4593982e-07 7.9516479e-07     57.10648     57.10648    -1083.641    -1083.641 -4.800774e-07   -497263.38 7.8068939e-16    1424965.9 
       0.056       57    436.95194   -251.16214 1.3517121e-07 1.039482e-06     57.10648     57.10648   -1081.2376   -1081.2376 -3.9777652e-07   -497263.38 7.8068939e-16    1424965.9 
       0.057       58    436.95194   -247.24844 -4.8868314e-09 1.0510405e-06     57.10648     57.10648   -1078.9124   -1078.9124 2.6378426e-07   -497263.38 7.8068939e-16    1424965.9 
       0.058       59    436.95194   -243.09188 -2.6565312e-07 1.1940068e-06     57.10648     57.10648   -1076.4321   -1076.4321 8.6923708e-07   -497263.38 7.8068939e-16    1424965.9 
       0.059       60    436.95194   -239.07643 -4.6533249e-07 1.5813279e-06     57.10648     57.10648   -1074.0398   -1074.0398 8.2194081e-07   -497263.38 7.8068939e-16    1424965.9 
        0.06       61    436.95194   -235.15477 -7.8482329e-07 1.1996229e-06     57.10648     57.10648   -1071.7096   -1071.7096 -5.7957696e-08   -497263.38 7.8068939e-16    1424965.9 
       0.061       62    436.95194   -231.00201 -1.1684387e-06 1.0327066e-06     57.10648     57.10648   -1069.2339   -1069.2338 -4.5803858e-07   -497263.38 7.8068939e-16    1424965.9 
       0.062       63    436.95194   -226.99971 -1.3640032e-06 1.3107585e-06     57.10648     57.10648   -1066.8475   -1066.8475 -2.5509837e-07   -497263.38 7.8068939e-16    1424965.9 
       0.063       64    436.95194   -223.06891 -1.0395587e-06 1.0349504e-06     57.10648     57.10648   -1064.5114   -1064.5114 1.0591019e-07   -497263.38 7.8068939e-16    1424965.9 
       0.064       65    436.95194   -218.92713 -1.1174271e-06 9.3037044e-07     57.10648     57.10648   -1062.0445   -1062.0445 -1.2932763e-07   -497263.38 7.8068939e-16    1424965.9 
       0.065       66    436.95194   -214.92896 -1.4608225e-06 1.238954e-06     57.10648     57.10648   -1059.6591   -1059.6591 -9.2505463e-07   -497263.38 7.8068939e-16    1424965.9 
       0.066       67    436.95194   -210.98236 -1.2624678e-06 1.1141352e-06     57.10648     57.10648   -1057.3126   -1057.3126 -1.2067438e-06   -497263.38 7.8068939e-16    1424965.9 
       0.067       68    436.95194   -206.83835 -1.1704646e-06 1.2093371e-06     57.10648     57.10648   -1054.8467   -1054.8467 -1.0176153e-06   -497263.38 7.8068939e-16    1424965.9 
       0.068       69    436.95194   -202.82917 -1.2412166e-06 1.7813196e-06     57.10648     57.10648   -1052.4536   -1052.4536 -7.3261742e-07   -497263.38 7.8068939e-16    1424965.9 
       0.069       70    436.95194   -198.89049 -1.1072733e-06 1.6108753e-06     57.10648     57.10648   -1050.1106   -1050.1106 -1.3669706e-08   -497263.38 7.8068939e-16    1424965.9 
        0.07       71    436.95194   -194.76579 -1.344458e-06 1.4972382e-06     57.10648     57.10648   -1047.6584   -1047.6584 6.9899424e-07   -497263.38 7.8068939e-16    1424965.9 
       0.071       72    436.95194   -190.75322 -1.7625737e-06 2.0146263e-06     57.10648     57.10648   -1045.2625   -1045.2625 1.0559838e-06   -497263.38 7.8068939e-16    1424965.9 
       0.072       73    436.95194   -186.81045 -1.4401734e-06 1.812386e-06     57.10648     57.10648   -1042.9157   -1042.9157 4.0349281e-07   -497263.38 7.8068939e-16    1424965.9 
       0.073       74    436.95194   -182.68155 -1.3106001e-06 1.4387141e-06     57.10648     57.10648   -1040.4628   -1040.4628 -4.0657749e-07   -497263.39 7.8068939e-16    1424965.9 
       0.074       75    436.95194   -178.66718 -1.691074e-06 1.531139e-06     57.10648     57.10648   -1038.0657   -1038.0657 -9.5408812e-07   -497263.39 7.8068939e-16    1424965.9 
       0.075       76    436.95194   -174.74541 -1.4944227e-06 1.3008641e-06     57.10648     57.10648   -1035.7298   -1035.7298 -8.4151739e-07   -497263.39 7.8068939e-16    1424965.9 
       0.076       77    436.95194   -170.61516 -1.2473459e-06 1.2479625e-06     57.10648     57.10648   -1033.2775   -1033.2775 -5.9121337e-07   -497263.39 7.8068939e-16    1424965.9 
       0.077       78    436.95194   -166.59135 -1.3244417e-06 1.7335987e-06     57.10648     57.10648   -1030.8751   -1030.8751 -4.2074718e-07   -497263.39 7.8068939e-16    1424965.9 
       0.078       79    436.95194   -162.66987 -8.7607241e-07 1.5487178e-06     57.10648     57.10648    -1028.538    -1028.538 1.6380208e-08   -497263.39 7.8068939e-16    1424965.9 
       0.079       80    436.95194    -158.5228 -4.35348e-07 1.2125763e-06     57.10648     57.10648   -1026.0763   -1026.0763 3.8571494e-07   -497263.39 7.8068939e-16    1424965.9 
        0.08       81    436.95194   -154.48782 -4.3683572e-07 1.4303048e-06     57.10648     57.10648    -1023.668    -1023.668 4.2635269e-07   -497263.39 7.8068939e-16    1424965.9 
       0.081       82    436.95194   -150.57085 -5.9618994e-07 1.2351467e-06     57.10648     57.10648   -1021.3325   -1021.3325 -1.9012196e-07   -497263.39 7.8068939e-16    1424965.9 
       0.082       83    436.95194   -146.42044 -7.5939624e-07 1.0172162e-06     57.10648     57.10648   -1018.8689   -1018.8689 -8.6402233e-07   -497263.39 7.8068939e-16    1424965.9 
       0.083       84    436.95194   -142.40387 -9.7665832e-07 1.2885381e-06     57.10648     57.10648   -1016.4727   -1016.4727 -1.3648686e-06   -497263.39 7.8068939e-16    1424965.9 
       0.084       85    436.95194   -138.49825 -7.7536541e-07 1.1666426e-06     57.10648     57.10648    -1014.143    -1014.143 -8.4609046e-07   -497263.39 7.8068939e-16    1424965.9 
       0.085       86    436.95194   -134.33049 -5.897559e-07 1.1386159e-06     57.10648     57.10648   -1011.6686   -1011.6686 -3.2030336e-07   -497263.39 7.8068939e-16    1424965.9 
       0.086       87    436.95194    -130.3014 -7.040066e-07 1.4797626e-06     57.10648     57.10648   -1009.2662   -1009.2662 -5.1099573e-07   -497263.39 7.8068939e-16    1424965.9 
       0.087       88    436.95194   -126.38534 -7.4081639e-07 1.0618498e-06     57.10648     57.10648   -1006.9298   -1006.9298 -9.2020235e-07   -497263.39 7.8068939e-16    1424965.9 
       0.088       89    436.95194   -122.22494 -6.503112e-07 7.6576345e-07     57.10648     57.10648   -1004.4588   -1004.4588 -8.4645736e-07   -497263.39 7.8068939e-16    1424965.9 
       0.089       90    436.95194   -118.21254 -6.0541493e-07 1.0186776e-06     57.10648     57.10648   -1002.0679   -1002.0679 -2.6035855e-07   -497263.39 7.8068939e-16    1424965.9 
        0.09       91    436.95194   -114.28471 -5.4952844e-07 8.7127365e-07     57.10648     57.10648   -999.72408   -999.72408 3.6480532e-07   -497263.39 7.8068939e-16    1424965.9 
       0.091       92    436.95194   -110.13492 -4.8695674e-07 5.9653297e-07     57.10648     57.10648   -997.25815   -997.25815 5.8631413e-07   -497263.39 7.8068939e-16    1424965.9 
       0.092       93    436.95194   -106.13669 -4.5140727e-07 4.6536177e-07     57.10648     57.10648   -994.87721   -994.87721 8.3081937e-07   -497263.39 7.8068939e-16    1424965.9 
       0.093       94    436.95194   -102.17212 -4.0863558e-07 3.6770063e-07     57.10648     57.10648   -992.51139   -992.51138 5.2049188e-07   -497263.39 7.8068939e-16    1424965.9 
       0.094       95    436.95194   -98.032562 -1.3069075e-07 4.9897469e-07     57.10648     57.10648   -990.05014   -990.05014 -3.5210335e-07   -497263.39 7.8068939e-16    1424965.9 
       0.095       96    436.95194   -94.062376 2.9031385e-07 7.0696704e-07     57.10648     57.10648   -987.68732   -987.68732 -1.4589173e-06   -497263.39 7.8068939e-16    1424965.9 
       0.096       97    436.95194   -90.071548 4.1462101e-07 7.1798468e-07     57.10648     57.10648   -985.30601   -985.30601 -1.5571455e-06   -497263.39 7.8068939e-16    1424965.9 
       0.097       98    436.95194    -85.96164 6.6616941e-07 8.7427528e-07     57.10648     57.10648   -982.86079   -982.86079 -1.3651523e-06   -497263.39 7.8068939e-16    1424965.9 
       0.098       99    436.95194   -82.041444 8.8849946e-07 8.0859708e-07     57.10648     57.10648   -980.52895   -980.52895 -1.2820126e-06   -497263.39 7.8068939e-16    1424965.9 
       0.099      100    436.95194   -78.009389 6.2076887e-07 4.7327905e-07     57.10648     57.10648   -978.12372   -978.12372 -1.1379385e-06   -497263.39 7.8068939e-16    1424965.9 
         0.1      101    436.95194   -73.887016 5.8242657e-07 6.4129459e-07     57.10648     57.10648   -975.66937   -975.66937 -1.2830255e-06   -497263.39 7.8068939e-16    1424965.9 
       0.101      102    436.95194   -69.972888 5.7320078e-07 6.5273419e-07     57.10648     57.10648   -973.34191    -973.3419 -1.1518076e-06    -497263.4 7.8068939e-16    1424965.9 
       0.102      103    436.95194   -65.902694 2.4998665e-07 3.0906551e-07     57.10648     57.10648   -970.91503   -970.91503 -7.81796e-07    -497263.4 7.8068939e-16    1424965.9 
       0.103      104    436.95194   -61.759628 4.9342837e-08 5.7773347e-07     57.10648     57.10648   -968.44668   -968.44668 -1.0354135e-06    -497263.4 7.8068939e-16    1424965.9 
       0.104      105    436.95194   -57.876145 2.4328146e-07 9.4931024e-07     57.10648     57.10648   -966.13784   -966.13783 -1.4539847e-06    -497263.4 7.8068939e-16    1424965.9 
       0.105      106    436.95194   -53.826593 4.8984369e-07 6.8436539e-07     57.10648     57.10648   -963.72475   -963.72475 -1.2584426e-06    -497263.4 7.8068939e-16    1424965.9 
       0.106      107    436.95194    -49.65396 4.9560144e-07 8.6669558e-07     57.10648     57.10648   -961.23692   -961.23692 -1.1889428e-06    -497263.4 7.8068939e-16    1424965.9 
       0.107      108    436.95194   -45.756572 3.3001921e-07 1.1801174e-06     57.10648     57.10648   -958.92016   -958.92016 -9.7893524e-07    -497263.4 7.8068939e-16    1424965.9 
       0.108      109    436.95194   -41.760219 3.7553755e-07 7.9801645e-07     57.10648     57.10648   -956.54018   -956.54018 -6.7302045e-07    -497263.4 7.8068939e-16    1424965.9 
       0.109      110    436.95194   -37.578438 5.8299468e-07 9.5052724e-07     57.10648     57.10648   -954.04516   -954.04516 -8.3360555e-07    -497263.4 7.8068939e-16    1424965.9 
        0.11      111    436.95194   -33.605469 7.481191e-07 1.6173966e-06     57.10648     57.10648   -951.68376   -951.68376 -9.1439757e-07    -497263.4 7.8068939e-16    1424965.9 
       0.111      112    436.95194   -29.659319 7.5652272e-07 1.4256024e-06     57.10648     57.10648   -949.33469   -949.33468 -3.9907201e-07    -497263.4 7.8068939e-16    1424965.9 
       0.112      113    436.95194   -25.561512 8.5858053e-07 1.0564453e-06     57.10648     57.10648   -946.88885   -946.88885 -6.9414775e-08    -497263.4 7.8068939e-16    1424965.9 
       0.113      114    436.95194   -21.542088 9.4219361e-07 9.0475999e-07     57.10648     57.10648   -944.49918   -944.49918 -1.3943824e-08    -497263.4 7.8068939e-16    1424965.9 
       0.114      115    436.95194   -17.510344 9.2523917e-07 6.7887348e-07     57.10648     57.10648   -942.10041    -942.1004 -5.8501913e-08    -497263.4 7.8068939e-16    1424965.9 
       0.115      116    436.95194   -13.502135 1.178345e-06 6.5297903e-07     57.10648     57.10648   -939.70767   -939.70767 -2.8964325e-07    -497263.4 7.8068939e-16    1424965.9 
       0.116      117    436.95194   -9.7303142 1.1299461e-06 5.8997254e-07     57.10648     57.10648   -937.46401   -937.46401 -6.1893113e-07    -497263.4 7.8068939e-16    1424965.9 
       0.117      118    436.95194   -6.0630702 5.7057005e-07 1.9528491e-07     57.10648     57.10648   -935.28395   -935.28395 -6.1407795e-07    -497263.4 7.8068939e-16    1424965.9 
       0.118      119    436.95194   -2.9644779 3.3462839e-07 -1.0085915e-07     57.10648     57.10648   -933.43295   -933.43295 -5.0889155e-07    -497263.4 7.8068939e-16    1424965.9 
       0.119      120    436.95194    -1.027887 3.2628572e-07 -1.9127024e-07     57.10648     57.10648   -932.28157   -932.28157 -3.2404699e-07    -497263.4 7.8068939e-16    1424965.9 
        0.12      121    436.95194 -0.071950241 2.1069462e-07 -2.7917548e-07     57.10648     57.10648    -931.7142    -931.7142 -1.3909444e-07    -497263.4 7.8068939e-16    1424965.9 
       0.121      122    436.95194   0.26728964 1.1877327e-07 -3.6287999e-07     57.10648     57.10648   -931.51036   -931.51036 -6.1780789e-08    -497263.4 7.8068939e-16    1424965.9 
       0.122      123    436.95194   0.35224921 8.9184242e-08 -3.9516222e-07     57.10648     57.10648   -931.45989   -931.45989 -1.6266971e-08    -497263.4 7.8068939e-16    1424965.9 
       0.123      124    436.95194   0.37076477 8.9325171e-08 -4.0029017e-07     57.10648     57.10648   -931.44926   -931.44926 -2.4379156e-09    -497263.4 7.8068939e-16    1424965.9 
       0.124      125    436.95194   0.37360495 9.2803162e-08 -3.9858361e-07     57.10648     57.10648   -931.44743   -931.44743 -4.7394617e-10    -497263.4 7.8068939e-16    1424965.9 
       0.125      126    436.95194   0.37395957 9.5784595e-08 -3.9607636e-07     57.10648     57.10648   -931.44719   -931.44719 -5.9219929e-11    -497263.4 7.8068939e-16    1424965.9 
       0.126      127    436.95194   0.37397817 9.842564e-08 -3.9368566e-07     57.10648     57.10648    -931.4472    -931.4472 -5.900304e-12    -497263.4 7.8068939e-16    1424965.9 
       0.127      128    436.95194   0.37395637 1.0062802e-07 -3.9160379e-07     57.10648     57.10648   -931.44722   -931.44722 -1.8722969e-13    -497263.4 7.8068939e-16    1424965.9 
       0.128      129    436.95194   0.37391475 1.0376025e-07 -3.885003e-07     57.10648     57.10648   -931.44724   -931.44724 -2.017857e-13    -497263.4 7.8068939e-16    1424965.9 
       0.129      130    436.95194   0.37372013 1.1644696e-07 -3.7535369e-07     57.10648     57.10648   -931.44736   -931.44736 -2.3637818e-12    -497263.4 7.8068939e-16    1424965.9 
        0.13      131    436.95194   0.37331871 1.3872815e-07 -3.5101592e-07     57.10648     57.10648    -931.4476    -931.4476 -7.6069078e-13    -497263.4 7.8068939e-16    1424965.9 
       0.131      132    436.95194   0.37314234 1.4397833e-07 -3.436576e-07     57.10648     57.10648    -931.4477    -931.4477 -1.8845655e-13    -497263.4 7.8068939e-16    1424965.9 
       0.132      133    436.95194   0.37300481 1.4006061e-07 -3.4404913e-07     57.10648     57.10648   -931.44778   -931.44778 -6.1181666e-13    -497263.4 7.8068939e-16    1424965.9 
       0.133      134    436.95194   0.37252478 1.1970249e-07 -3.5162986e-07     57.10648     57.10648   -931.44807   -931.44807 -7.3751104e-13    -497263.4 7.8068939e-16    1424965.9 
       0.134      135    436.95194   0.37203339 1.0095846e-07 -3.5982506e-07     57.10648     57.10648   -931.44836   -931.44836 2.3270519e-13    -497263.4 7.8068939e-16    1424965.9 
       0.135      136    436.95194   0.37183771 9.8968911e-08 -3.6195932e-07     57.10648     57.10648   -931.44848   -931.44848 -5.605653e-13    -497263.4 7.8068939e-16    1424965.9 
Loop time of 16.588 on 64 procs for 134 steps with 120800 atoms

85.4% CPU use with 64 MPI tasks x 1 OpenMP threads

Minimization stats:
  Stopping criterion = energy tolerance
  Energy initial, next-to-last, final = 
     -497263.358792306  -497263.401315454  -497263.401315454
  Force two-norm initial, final = 0.057960726 2.8486488e-05
  Force max component initial, final = 0.0019997888 3.0785923e-07
  Final line search alpha, max atom move = 1.0000000 3.0785923e-07
  Iterations, force evaluations = 134 268

MPI task timing breakdown:
Section |  min time  |  avg time  |  max time  |%varavg| %total
---------------------------------------------------------------
Pair    | 7.5563     | 9.3865     | 10.467     |  24.3 | 56.59
Neigh   | 0          | 0          | 0          |   0.0 |  0.00
Comm    | 3.3704     | 3.7043     | 4.7805     |  16.3 | 22.33
Output  | 0.49499    | 0.4993     | 0.505      |   0.2 |  3.01
Modify  | 0          | 0          | 0          |   0.0 |  0.00
Other   |            | 2.998      |            |       | 18.07

Nlocal:        1887.50 ave        2008 max        1593 min
Histogram: 4 0 0 0 0 0 0 56 0 4
Nghost:        5147.12 ave        5329 max        4347 min
Histogram: 4 0 0 4 0 0 0 16 4 36
Neighs:         0.00000 ave           0 max           0 min
Histogram: 64 0 0 0 0 0 0 0 0 0
FullNghs:      315025.0 ave      337344 max      251186 min
Histogram: 4 0 0 0 0 2 2 42 10 4

Total # of neighbors = 20161600
Ave neighs/atom = 166.90066
Neighbor list builds = 0
Dangerous builds = 0
436.9519449144 57.10648 0.371837712490466 0.371596575607567 0.000199980002666245 0.135 7.80689393103393e-16
minimize end
  using 1 OpenMP thread(s) per MPI task
