LAMMPS (3 Mar 2020)
Reading data file ...
  orthogonal box = (-1427.97 -9.74881e-06 -9.74881e-06) to (9996.79 285.532 285.532)
  160 by 4 by 4 MPI processor grid
  reading atoms ...
  60020000 atoms
  reading velocities ...
  60020000 velocities
  read_data CPU = 82.3653 secs
20000 atoms in group source
20000 atoms in group detector
10000 atoms in group edge
10000 atoms in group edge_buf
19980000 atoms in group buffer
WARNING: Using 'neigh_modify every 1 delay 0 check yes' setting during minimization (../min.cpp:190)
Neighbor list info ...
  update every 1 steps, delay 0 steps, check yes
  max neighbors/atom: 2000, page size: 100000
  master list distance cutoff = 7.6
  ghost atom cutoff = 7.6
  binsize = 3.8, bins = 3007 76 76
  1 neighbor lists, perpetual/occasional/extra = 1 0 0
  (1) pair eam/alloy, perpetual
      attributes: half, newton on
      pair build: half/bin/atomonly/newton
      stencil: half/bin/3d/newton
      bin: standard
Setting up cg style minimization ...
  Unit style    : metal
  Current step  : 0
Per MPI rank memory allocation (min/avg/max) = 8.251 | 22.21 | 27.31 Mbytes
Step Temp E_pair E_mol TotEng Press 
       0            0 -2.4725663e+08            0 -2.4725663e+08   -0.1958036 
       1            0 -2.4725663e+08            0 -2.4725663e+08  -0.19493143 
Loop time of 0.238191 on 2560 procs for 1 steps with 60020000 atoms

99.8% CPU use with 2560 MPI tasks x no OpenMP threads

Minimization stats:
  Stopping criterion = energy tolerance
  Energy initial, next-to-last, final = 
        -247256632.196     -247256632.196     -247256632.205
  Force two-norm initial, final = 0.292999 0.400923
  Force max component initial, final = 0.0458421 0.0763936
  Final line search alpha, max atom move = 1 0.0763936
  Iterations, force evaluations = 1 2

MPI task timing breakdown:
Section |  min time  |  avg time  |  max time  |%varavg| %total
---------------------------------------------------------------
Pair    | 4.7684e-07 | 0.14627    | 0.22818    |  21.6 | 61.41
Neigh   | 0          | 0          | 0          |   0.0 |  0.00
Comm    | 2.3842e-07 | 0.0091104  | 0.11467    |  14.4 |  3.82
Output  | 0          | 0          | 0          |   0.0 |  0.00
Modify  | 0          | 0          | 0          |   0.0 |  0.00
Other   |            | 0.08282    |            |       | 34.77

Nlocal:    23445.3 ave 32200 max 0 min
Histogram: 640 0 0 0 0 0 0 0 0 1920
Nghost:    18785.3 ave 25737 max 0 min
Histogram: 608 32 0 0 0 0 0 16 16 1888
Neighs:    1.96812e+06 ave 2.71205e+06 max 0 min
Histogram: 640 0 0 0 0 0 0 0 1 1919

Total # of neighbors = 5.0384e+09
Ave neighs/atom = 83.9453
Neighbor list builds = 0
Dangerous builds = 0
WARNING: Using 'neigh_modify every 1 delay 0 check yes' setting during minimization (../min.cpp:190)
Setting up cg style minimization ...
  Unit style    : metal
  Current step  : 1
WARNING: Energy due to 3 extra global DOFs will be included in minimizer energies
Per MPI rank memory allocation (min/avg/max) = 8.251 | 22.21 | 27.31 Mbytes
Step Temp E_pair E_mol TotEng Press Volume 
       1            0 -2.4725663e+08            0 -2.4725663e+08  -0.19493143 9.3144656e+08 
       2            0 -2.4725663e+08            0 -2.4725663e+08   0.59533368 9.3144601e+08 
Loop time of 0.382844 on 2560 procs for 1 steps with 60020000 atoms

99.9% CPU use with 2560 MPI tasks x no OpenMP threads

Minimization stats:
  Stopping criterion = energy tolerance
  Energy initial, next-to-last, final = 
        -247256632.205     -247256632.205     -247256632.205
  Force two-norm initial, final = 673.813 621.25
  Force max component initial, final = 639.631 412.671
  Final line search alpha, max atom move = 1.5634e-05 0.0064517
  Iterations, force evaluations = 1 2

MPI task timing breakdown:
Section |  min time  |  avg time  |  max time  |%varavg| %total
---------------------------------------------------------------
Pair    | 4.7684e-07 | 0.15387    | 0.23129    |  22.0 | 40.19
Neigh   | 1.1444e-05 | 0.098625   | 0.14702    |  18.2 | 25.76
Comm    | 4.5776e-05 | 0.011987   | 0.11772    |  13.0 |  3.13
rm: cannot remove '*.restart': No such file or directory
Output  | 0          | 0          | 0          |   0.0 |  0.00
Modify  | 0          | 0          | 0          |   0.0 |  0.00
Other   |            | 0.1184     |            |       | 30.92

Nlocal:    23445.3 ave 32200 max 0 min
Histogram: 640 0 0 0 0 0 0 0 0 1920
Nghost:    18785.3 ave 25737 max 0 min
Histogram: 608 32 0 0 0 0 0 16 16 1888
Neighs:    1.96812e+06 ave 2.71205e+06 max 0 min
Histogram: 640 0 0 0 0 0 0 0 1 1919

Total # of neighbors = 5.0384e+09
Ave neighs/atom = 83.9453
Neighbor list builds = 2
Dangerous builds = 2
WARNING: Using 'neigh_modify every 1 delay 0 check yes' setting during minimization (../min.cpp:190)
Setting up cg style minimization ...
  Unit style    : metal
  Current step  : 2
Per MPI rank memory allocation (min/avg/max) = 8.253 | 22.21 | 27.31 Mbytes
Step Temp E_pair E_mol TotEng Press 
       2            0 -2.4725663e+08            0 -2.4725663e+08   0.59533368 
       3            0 -2.4725663e+08            0 -2.4725663e+08   0.59525852 
Loop time of 0.236249 on 2560 procs for 1 steps with 60020000 atoms

100.0% CPU use with 2560 MPI tasks x no OpenMP threads

Minimization stats:
  Stopping criterion = energy tolerance
  Energy initial, next-to-last, final = 
        -247256632.205     -247256632.205     -247256632.211
  Force two-norm initial, final = 0.400931 0.313789
  Force max component initial, final = 0.0763936 0.0893914
  Final line search alpha, max atom move = 1 0.0893914
  Iterations, force evaluations = 1 2

MPI task timing breakdown:
Section |  min time  |  avg time  |  max time  |%varavg| %total
---------------------------------------------------------------
Pair    | 2.3842e-07 | 0.14708    | 0.22664    |  21.7 | 62.26
Neigh   | 0          | 0          | 0          |   0.0 |  0.00
Comm    | 0          | 0.008898   | 0.1152     |  14.5 |  3.77
Output  | 0          | 0          | 0          |   0.0 |  0.00
Modify  | 0          | 0          | 0          |   0.0 |  0.00
Other   |            | 0.08027    |            |       | 33.98

Nlocal:    23445.3 ave 32200 max 0 min
Histogram: 640 0 0 0 0 0 0 0 0 1920
Nghost:    18785.3 ave 25737 max 0 min
Histogram: 608 32 0 0 0 0 0 16 16 1888
Neighs:    1.96812e+06 ave 2.71205e+06 max 0 min
Histogram: 640 0 0 0 0 0 0 0 1 1919

Total # of neighbors = 5.0384e+09
Ave neighs/atom = 83.9453
Neighbor list builds = 0
Dangerous builds = 0
WARNING: Shell command returned with non-zero status (../input.cpp:1364)
System init for write_restart ...
WARNING: One or more atoms are time integrated more than once (../modify.cpp:289)
WARNING: One or more atoms are time integrated more than once (../modify.cpp:289)
Setting up Verlet run ...
  Unit style    : metal
  Current step  : 3
  Time step     : 0.01
0 0.487682379161316 2858.86824902032 5715.00563281026 0 0.0447787743980805 0 931446009.83993 -247256632.210982 0.595258520473352
Per MPI rank memory allocation (min/avg/max) = 6.753 | 19.59 | 24.31 Mbytes
Step Temp E_pair E_mol TotEng Press 
       3            0 -2.4725663e+08            0 -2.4725663e+08   0.59525852 
0.01 0.490823455069128 2858.86824903966 5715.00563281026 3.86829099610787e-06 0.0447787540863318 6.35729913912024e-05 931446009.83993 -247256631.414134 1.08804126293203
       4 6.3572991e-05 -2.4725663e+08            0 -2.4725663e+08    1.0880413 
0.02 0.493961431114247 2858.86824909769 5715.00563281026 7.73657827232581e-06 0.0447786882762893 6.39696283184551e-05 931446009.83993 -247256630.58852 1.57852799185191
       5 6.3969628e-05 -2.4725663e+08            0 -2.4725663e+08     1.578528 
0.03 0.497093210493166 2858.8682491944 5715.00563281026 1.16048579733602e-05 0.0447785787079235 9.39366401451434e-05 931446009.83993 -247256629.229283 2.06724653010768
       6 9.393664e-05 -2.4725663e+08            0 -2.4725663e+08    2.0672465 
0.04 0.500215702517745 2858.86824932978 5715.00563281026 1.54731263119955e-05 0.044778425217389 0.000169081398022913 931446009.83993 -247256627.445456 2.55412038433724
       7 0.0001690814 -2.4725663e+08            0 -2.4725663e+08    2.5541204 
0.05 0.503325825665338 2858.86824950386 5715.00563281026 1.93413795199932e-05 0.0447782284078788 0.000291868603647095 931446009.83993 -247256625.361582 3.03887173191053
       8 0.0002918686 -2.4725663e+08            0 -2.4725663e+08    3.0388717 
0.06 0.506420510619888 2858.86824971661 5715.00563281026 2.32096138246357e-05 0.0447779875725013 0.000449589627800233 931446009.83993 -247256623.100502 3.5209614063492
       9 0.00044958963 -2.4725663e+08            0 -2.4725662e+08    3.5209614 
0.07 0.50949670330097 2858.86824996805 5715.00563281026 2.70778254528536e-05 0.0447777034100102 0.000621429122360355 931446009.83993 -247256620.771432 3.99970850955796
      10 0.00062142912 -2.4725663e+08            0 -2.4725662e+08    3.9997085 
0.08 0.512551367877801 2858.86825025817 5715.00563281026 3.09460106592302e-05 0.0447773758618473 0.000788873139123268 931446009.83993 -247256618.461977 4.4744954831448
      11 0.00078887314 -2.4725662e+08            0 -2.4725662e+08    4.4744955 
0.09 0.515581489765238 2858.86825058697 5715.00563281026 3.4814165697026e-05 0.0447770049559536 0.000942409165511777 931446009.83993 -247256616.233359 4.94493005141817
      12 0.00094240917 -2.4725662e+08            0 -2.4725662e+08    4.9449301 
0.1 0.51858407859881 2858.86825095445 5715.00563281026 3.86822868304101e-05 0.0447765909169431 0.0010815573357215 931446009.83993 -247256614.118144 5.41083306569145
      13 0.0010815573 -2.4725662e+08            0 -2.4725661e+08    5.4108331 
0.11 0.521556171185844 2858.86825136062 5715.00563281026 4.25503703251655e-05 0.0447761335575568 0.0012103649979214 931446009.83993 -247256612.121757 5.87205580677415
      14  0.001210365 -2.4725662e+08            0 -2.4725661e+08    5.8720558 
0.12 0.524494834429783 2858.86825180546 5715.00563281026 4.64184124077977e-05 0.0447756321557221 0.00133260777269974 931446009.83993 -247256610.22837 6.32833815923802
      15 0.0013326078 -2.4725662e+08            0 -2.4725661e+08    6.3283382 
0.13 0.527397168224793 2858.86825228898 5715.00563281026 5.02864092954623e-05 0.0447750872170424 0.00144991711466633 931446009.83993 -247256608.409962 6.77926350325066
      16 0.0014499171 -2.4725662e+08            0 -2.4725661e+08    6.7792635 
0.14 0.530260308317822 2858.86825281119 5715.00563281027 5.41543572090054e-05 0.0447744983213498 0.00156307144805339 931446009.83993 -247256606.637306 7.22432323857867
      17 0.0015630714 -2.4725662e+08            0 -2.4725661e+08    7.2243232 
0.15 0.53308142913527 2858.86825337207 5715.00563281027 5.80222523383024e-05 0.0447738651717966 0.00167398299742218 931446009.83993 -247256604.888911 7.66298626425405
      18  0.001673983 -2.4725662e+08            0 -2.472566e+08    7.6629863 
0.16 0.535857746571486 2858.86825397163 5715.00563281036 6.18900908856541e-05 0.0447731883528974 0.00178576042259351 931446009.83993 -247256603.155587 8.09474016425163
      19 0.0017857604 -2.4725662e+08            0 -2.472566e+08    8.0947402 
0.17 0.538586520736352 2858.86825460987 5715.00563281036 6.57578690795306e-05 0.0447724678859943 0.00190058425591293 931446009.83993 -247256601.44032 8.51911128578642
      20 0.0019005843 -2.4725662e+08            0 -2.472566e+08    8.5191113 
0.18 0.541265058659214 2858.86825528679 5715.00563281036 6.96255831340237e-05 0.0447717034168768 0.00201768543276446 931446009.83993 -247256599.754976 8.9356339568943
      21 0.0020176854 -2.4725662e+08            0 -2.472566e+08     8.935634 
0.19 0.543890716946528 2858.86825600238 5715.00563281036 7.34932292770151e-05 0.0447708956189983 0.00213356891354416 931446009.83993 -247256598.116179 9.34384523190695
      22 0.0021335689 -2.4725661e+08            0 -2.472566e+08    9.3438452 
0.2 0.546460904390562 2858.86825675666 5715.00563281037 7.73608037722648e-05 0.0447700446495652 0.00224416390364673 931446009.83993 -247256596.541455 9.74328807452091
      23 0.0022441639 -2.4725661e+08            0 -2.472566e+08    9.7432881 
0.21 0.548973084526612 2858.8682575496 5715.00563281037 8.12283028692433e-05 0.0447691500205329 0.00234703326604033 931446009.83993 -247256595.045695 10.133566955872
      24 0.0023470333 -2.4725661e+08            0 -2.472566e+08    10.133567 
0.22 0.551424778136184 2858.86825838122 5715.00563281039 8.50957228314444e-05 0.0447682125446154 0.00244212972219155 931446009.83993 -247256593.63816 10.5143630083705
      25 0.0024421297 -2.4725661e+08            0 -2.4725659e+08    10.514363 
0.23 0.55381356569368 2858.86825925152 5715.00563281039 8.89630599194339e-05 0.0447672313413076 0.00253088665631111 931446009.83993 -247256592.321248 10.885367295317
      26 0.0025308867 -2.4725661e+08            0 -2.4725659e+08    10.885367 
0.24 0.556137089754184 2858.86826016048 5715.00563281039 9.28303103443147e-05 0.0447662061459699 0.00261463174252146 931446009.83993 -247256591.09062 11.2462479862581
      27 0.0026146317 -2.4725661e+08            0 -2.4725659e+08    11.246248 
0.25 0.55839305727997 2858.86826110812 5715.0056328104 9.66974703283179e-05 0.0447651374808691 0.00269369593895211 931446009.83993 -247256589.937161 11.59666731176
      28 0.0026936959 -2.4725661e+08            0 -2.4725659e+08    11.596667 
0.26 0.560579241903456 2858.86826209443 5715.0056328104 0.000100564536099683 0.0447640249628626 0.00276793856160115 931446009.83993 -247256588.850492 11.93630122851
      29 0.0027679386 -2.4725661e+08            0 -2.4725659e+08    11.936301 
0.27 0.56269348612436 2858.86826311941 5715.0056328104 0.000104431503875336 0.0447628687131247 0.00283786670589838 931446009.83993 -247256587.822439 12.2648407498333
      30 0.0028378667 -2.4725661e+08            0 -2.4725659e+08    12.264841 
0.28 0.564733703438893 2858.86826418306 5715.0056328104 0.000108298369874572 0.0447616686653685 0.00290480932573116 931446009.83993 -247256586.849028 12.5819674426628
      31 0.0029048093 -2.4725661e+08            0 -2.4725659e+08    12.581967 
0.29 0.566697880398884 2858.86826528538 5715.00563281041 0.000112165130328746 0.0447604251650944 0.00296987521260982 931446009.83993 -247256585.930524 12.8873518230195
      32 0.0029698752 -2.4725661e+08            0 -2.4725659e+08    12.887352 
0.3 0.568584078598809 2858.86826642637 5715.00563281041 0.000116031781471874 0.0447591379283772 0.00303288031940398 931446009.83993 -247256585.069841 13.1806487321455
      33 0.0030328803 -2.4725661e+08            0 -2.4725659e+08    13.180649 
0.31 0.570390436588771 2858.86826760601 5715.00563281044 0.000119898319528852 0.0447578070279962 0.00309237817019348 931446009.83993 -247256584.271426 13.461474050236
      34 0.0030923782 -2.4725661e+08            0 -2.4725658e+08    13.461474 
0.32 0.572115171711516 2858.86826882433 5715.00563281044 0.000123764740724512 0.044756432389756 0.0031466824457005 931446009.83993 -247256583.539717 13.7294601054519
      35 0.0031466824 -2.4725661e+08            0 -2.4725658e+08     13.72946 
0.33 0.573756581861709 2858.86827008131 5715.00563281044 0.000127631041294845 0.0447550143460937 0.00319491575614139 931446009.83993 -247256582.877729 13.9843373972352
      36 0.0031949158 -2.4725661e+08            0 -2.4725658e+08    13.984337 
0.34 0.575313047165701 2858.86827137695 5715.00563281045 0.00013149721749837 0.0447535530862161 0.00323742378281635 931446009.83993 -247256582.286369 14.2259308305274
      37 0.0032374238 -2.4725661e+08            0 -2.4725658e+08    14.225931 
0.35 0.576783031580151 2858.86827271126 5715.00563281054 0.000135363265600147 0.0447520485723403 0.00327533807385768 931446009.83993 -247256581.763807 14.4541000512706
      38 0.0032753381 -2.4725661e+08            0 -2.4725658e+08      14.4541 
0.36 0.578165084407917 2858.86827408422 5715.00563281054 0.000139229181854008 0.0447505005822721 0.00330958421382048 931446009.83993 -247256581.305615 14.6686773383479
      39 0.0033095842 -2.4725661e+08            0 -2.4725658e+08    14.668677 
0.37 0.579457841729713 2858.86827549584 5715.00563281055 0.00014309496249448 0.0447489088913055 0.00334029120871598 931446009.83993 -247256580.905384 14.8694609517546
      40 0.0033402912 -2.4725661e+08            0 -2.4725658e+08    14.869461 
0.38 0.580660027750139 2858.86827694611 5715.00563281057 0.000146960603744573 0.0447472734574475 0.00336719466657107 931446009.83993 -247256580.556172 15.0562344855339
      41 0.0033671947 -2.4725661e+08            0 -2.4725658e+08    15.056234 
0.39 0.581770456056737 2858.86827843505 5715.00563281057 0.000150826101824902 0.0447455942672897 0.00339048908180755 931446009.83993 -247256580.252397 15.2287634390565
      42 0.0033904891 -2.4725661e+08            0 -2.4725658e+08    15.228763 
0.4 0.58278803079083 2858.86827996264 5715.00563281058 0.000154691452959606 0.0447438714158253 0.00341104333270825 931446009.83993 -247256579.990189 15.3868280739638
      43 0.0034110433 -2.4725661e+08            0 -2.4725658e+08    15.386828 
0.41 0.583711747729009 2858.86828152888 5715.00563281076 0.000158556653362377 0.0447421045661887 0.00342971057396698 931446009.83993 -247256579.767238 15.53026739621
      44 0.0034297106 -2.4725661e+08            0 -2.4725658e+08    15.530267 
0.42 0.584540695274178 2858.86828313377 5715.00563281076 0.00016242169925073 0.0447402941437431 0.00344665558406044 931446009.83993 -247256579.581566 15.6589571409057
      45 0.0034466556 -2.4725661e+08            0 -2.4725658e+08    15.658957 
0.43 0.585274055355189 2858.86828477731 5715.00563281077 0.000166286586871074 0.0447384403920713 0.00346138918368901 931446009.83993 -247256579.431395 15.7727700825287
      46 0.0034613892 -2.4725661e+08            0 -2.4725658e+08     15.77277 
0.44 0.585911104234183 2858.8682864595 5715.00563281079 0.000170151312485701 0.0447365434353012 0.0034733039818791 931446009.83993 -247256579.314516 15.8715747253087
      47  0.003473304 -2.4725661e+08            0 -2.4725658e+08    15.871575 
0.45 0.586451213220828 2858.86828818034 5715.00563281079 0.000174015872356067 0.0447346031300243 0.00348227610241809 931446009.83993 -247256579.227868 15.9552675658709
      48 0.0034822761 -2.4725661e+08            0 -2.4725658e+08    15.955268 
0.46 0.586893849292762 2858.86828993982 5715.0056328108 0.000177880262743807 0.0447326196236579 0.00348892811529934 931446009.83993 -247256579.16769 16.0237800965315
      49 0.0034889281 -2.4725661e+08            0 -2.4725658e+08     16.02378 
0.47 0.587238575621622 2858.86829173795 5715.00563281089 0.00018174447988593 0.0447305921987789 0.00349431588701662 931446009.83993 -247256579.129635 16.0770440275058
      50 0.0034943159 -2.4725661e+08            0 -2.4725658e+08    16.077044 
0.48 0.587485052004142 2858.86829357471 5715.0056328109 0.000185608520030139 0.0447285218203316 0.00349920382906674 931446009.83993 -247256579.108765 16.1149954049876
      51 0.0034992038 -2.4725661e+08            0 -2.4725658e+08    16.114995 
0.49 0.587633035197888 2858.86829545011 5715.00563281092 0.000189472379446476 0.044726408040584 0.00350359966985275 931446009.83993 -247256579.099819 16.1376115880249
      52 0.0035035997 -2.4725661e+08            0 -2.4725658e+08    16.137612 
0.5 0.587682379161314 2858.86829736416 5715.00563281093 0.000193336054367186 0.0447242504321355 0.00350715222273528 931446009.83993 -247256579.097522 16.1449045347332
      53 0.0035071522 -2.4725661e+08            0 -2.4725658e+08    16.144905 
0.51 0.587633035197888 2858.86829931684 5715.00563281093 0.000197199541010532 0.0447220490987772 0.00350991265939231 931446009.83993 -247256579.09763 16.1368913862066
      54 0.0035099127 -2.4725661e+08            0 -2.4725658e+08    16.136891 
0.52 0.587485052004142 2858.86830130815 5715.00563281094 0.000201062835585592 0.0447198037240246 0.00351249604833936 931446009.83993 -247256579.096583 16.1135843915315
      55  0.003512496 -2.4725661e+08            0 -2.4725658e+08    16.113584 
0.53 0.587238575621622 2858.86830333809 5715.00563281095 0.000204925934329057 0.0447175152636173 0.0035155918267366 931446009.83993 -247256579.091067 16.0749967512372
      56 0.0035155918 -2.4725661e+08            0 -2.4725658e+08    16.074997 
0.54 0.586893849292762 2858.86830540667 5715.00563281097 0.000208788833495225 0.0447151831695159 0.0035194995507941 931446009.83993 -247256579.077117 16.0211323970503
      57 0.0035194996 -2.4725661e+08            0 -2.4725658e+08    16.021132 
0.55 0.586451213220828 2858.86830751387 5715.00563281098 0.000212651529325376 0.0447128076883133 0.0035241535454184 931446009.83993 -247256579.050113 15.9519744192365
      58 0.0035241535 -2.4725661e+08            0 -2.4725658e+08    15.951974 
0.56 0.585911104234183 2858.8683096597 5715.00563281107 0.00021651401807666 0.0447103889408603 0.00352945816900006 931446009.83993 -247256579.005078 15.867533204312
      59 0.0035294582 -2.4725661e+08            0 -2.4725658e+08    15.867533 
0.57 0.585274055355189 2858.86831184415 5715.00563281108 0.000220376296005502 0.0447079267895276 0.00353561382157097 931446009.83993 -247256578.936705 15.767906155798
      60 0.0035356138 -2.4725661e+08            0 -2.4725658e+08    15.767906 
0.58 0.584540695274178 2858.86831406722 5715.0056328111 0.000224238359347236 0.0447054208836417 0.00354330348849837 931446009.83993 -247256578.840011 15.653259366878
      61 0.0035433035 -2.4725661e+08            0 -2.4725658e+08    15.653259 
0.59 0.583711747729009 2858.86831632892 5715.00563281111 0.00022810020435158 0.0447028719068786 0.00355344387302993 931446009.83993 -247256578.710566 15.5237690065415
      62 0.0035534439 -2.4725661e+08            0 -2.4725658e+08    15.523769 
0.6 0.58278803079083 2858.86831862923 5715.00563281129 0.000231961827261846 0.0447002790272574 0.00356655417993429 931446009.83993 -247256578.54477 15.379591263331
      63 0.0035665542 -2.4725661e+08            0 -2.4725658e+08    15.379591 
0.61 0.581770456056737 2858.86832096815 5715.0056328113 0.000235823224329486 0.0446976432652359 0.00358244791294069 931446009.83993 -247256578.339506 15.2208683769765
      64 0.0035824479 -2.4725661e+08            0 -2.4725658e+08    15.220868 
0.62 0.58066002775014 2858.86832334569 5715.00563281132 0.000239684391803492 0.0446949635433864 0.00360064433586471 931446009.83993 -247256578.092153 15.0477306664706
      65 0.0036006443 -2.4725661e+08            0 -2.4725658e+08    15.047731 
0.63 0.579457841729713 2858.86832576184 5715.00563281133 0.000243545325917049 0.0446922405731533 0.00362103085229413 931446009.83993 -247256577.800958 14.8602949272529
      66 0.0036210309 -2.4725661e+08            0 -2.4725658e+08    14.860295 
0.64 0.578165084407917 2858.8683282166 5715.00563281142 0.000247406022939312 0.0446894744759152 0.00364400306077298 931446009.83993 -247256577.464298 14.6587058172554
      67 0.0036440031 -2.4725661e+08            0 -2.4725658e+08    14.658706 
0.65 0.576783031580151 2858.86833070996 5715.00563281143 0.000251266479145704 0.0446866652753722 0.00367005341451272 931446009.83993 -247256577.07992 14.4431728444696
      68 0.0036700534 -2.4725661e+08            0 -2.4725658e+08    14.443173 
0.66 0.575313047165701 2858.86833324193 5715.00563281146 0.000255126690801695 0.0446838127174097 0.00369946882840314 931446009.83993 -247256576.644573 14.2139386353274
      69 0.0036994688 -2.4725661e+08            0 -2.4725658e+08    14.213939 
0.67 0.573756581861709 2858.8683358125 5715.00563281147 0.000258986654175255 0.0446809171139828 0.00373235149942733 931446009.83993 -247256576.154154 13.9712390845268
      70 0.0037323515 -2.4725661e+08            0 -2.4725658e+08    13.971239 
0.68 0.572115171711516 2858.86833842166 5715.00563281147 0.000262846365534346 0.0446779781529873 0.00376877576656711 931446009.83993 -247256575.604122 13.7153072571704
      71 0.0037687758 -2.472566e+08            0 -2.4725658e+08    13.715307 
0.69 0.570390436588771 2858.86834106942 5715.0056328115 0.000266705821136103 0.0446749958958717 0.00380900786709073 931446009.83993 -247256574.990102 13.4463939530626
      72 0.0038090079 -2.472566e+08            0 -2.4725657e+08    13.446394 
0.7 0.56858407859881 2858.86834375578 5715.00563281151 0.000270565017241654 0.0446719703736306 0.00385362916964917 931446009.83993 -247256574.308727 13.1647647747526
      73 0.0038536292 -2.472566e+08            0 -2.4725657e+08    13.164765 
0.71 0.566697880398884 2858.86834648072 5715.0056328116 0.000274423950083491 0.0446689008922529 0.00390330723304821 931446009.83993 -247256573.558033 12.8706805282031
      74 0.0039033072 -2.472566e+08            0 -2.4725657e+08    12.870681 
0.72 0.564733703438894 2858.86834924426 5715.00563281161 0.000278282615872709 0.0446657876503985 0.00395825919087474 931446009.83993 -247256572.737422 12.5644199840103
      75 0.0039582592 -2.472566e+08            0 -2.4725657e+08     12.56442 
0.73 0.562693486124361 2858.86835204638 5715.00563281164 0.000282141010820136 0.0446626304432829 0.00401801699542431 931446009.83993 -247256571.847301 12.246311156215
      76  0.004018017 -2.472566e+08            0 -2.4725657e+08    12.246311 
0.74 0.560579241903456 2858.86835488708 5715.00563281182 0.000285999131136702 0.0446594294779621 0.0040819017726141 931446009.83993 -247256570.888917 11.9167024481284
      77 0.0040819018 -2.472566e+08            0 -2.4725657e+08    11.916702 
0.75 0.55839305727997 2858.86835776636 5715.00563281183 0.000289856973076825 0.0446561855542449 0.00414961424086776 931446009.83993 -247256569.863989 11.575933942195
      78 0.0041496142 -2.472566e+08            0 -2.4725657e+08    11.575934 
0.76 0.556137089754184 2858.86836068422 5715.00563281186 0.000293714532920945 0.0446528984747602 0.00422129003780114 931446009.83993 -247256568.774001 11.2243433089191
      79   0.00422129 -2.472566e+08            0 -2.4725657e+08    11.224343 
0.77 0.55381356569368 2858.86836364065 5715.00563281191 0.000297571806949286 0.0446495684319272 0.00429717457248884 931446009.83993 -247256567.619474 10.8622655670034
      80 0.0042971746 -2.472566e+08            0 -2.4725657e+08    10.862266 
0.78 0.551424778136184 2858.86836663565 5715.00563281197 0.000301428791461492 0.0446461956828809 0.00437739853621247 931446009.83993 -247256566.399576 10.4900234401688
      81 0.0043773985 -2.472566e+08            0 -2.4725657e+08    10.490023 
0.79 0.548973084526613 2858.86836966922 5715.00563281199 0.000305285482768157 0.0446427802239844 0.0044620012358428 931446009.83993 -247256565.112672 10.1079273049698
      82 0.0044620012 -2.472566e+08            0 -2.4725657e+08    10.107927 
0.8 0.546460904390562 2858.86837274136 5715.005632812 0.000309141877157733 0.0446393215463083 0.00455101131685792 931446009.83993 -247256563.756659 9.71632240445441
      83 0.0045510113 -2.472566e+08            0 -2.4725656e+08    9.7163224 
0.81 0.543890716946528 2858.86837585206 5715.00563281201 0.000312997970906266 0.0446358198715074 0.0046445663090338 931446009.83993 -247256562.329935 9.31563278741671
      84 0.0046445663 -2.472566e+08            0 -2.4725656e+08    9.3156328 
0.82 0.541265058659215 2858.86837900132 5715.00563281204 0.000316853760298599 0.0446322751816277 0.00474302796983033 931446009.83993 -247256560.832313 8.9063175704822
      85  0.004743028 -2.472566e+08            0 -2.4725656e+08    8.9063176 
0.83 0.538586520736352 2858.86838218914 5715.00563281214 0.000320709241597332 0.0446286869796475 0.00484674546033996 931446009.83993 -247256559.265331 8.48882323417228
      86 0.0048467455 -2.472566e+08            0 -2.4725656e+08    8.4888232 
0.84 0.535857746571486 2858.86838541551 5715.00563281215 0.000324564411046789 0.0446250553394674 0.00495557922642405 931446009.83993 -247256557.632009 8.06358147478633
      87 0.0049555792 -2.472566e+08            0 -2.4725656e+08    8.0635815 
0.85 0.53308142913527 2858.86838868043 5715.00563281218 0.000328419264890803 0.0446213801758232 0.00506879645741533 931446009.83993 -247256555.936396 7.63100188693529
      88 0.0050687965 -2.472566e+08            0 -2.4725656e+08    7.6310019 
0.86 0.530260308317822 2858.86839198389 5715.00563281236 0.000332273799374636 0.0446176616070642 0.00518554058446195 931446009.83993 -247256554.183447 7.19147335668304
      89 0.0051855406 -2.4725659e+08            0 -2.4725655e+08    7.1914734 
0.87 0.527397168224793 2858.8683953259 5715.00563281237 0.000336128010720203 0.0446138989743179 0.00530534579367609 931446009.83993 -247256552.378104 6.74537813151751
      90 0.0053053458 -2.4725659e+08            0 -2.4725655e+08    6.7453781 
0.88 0.524494834429783 2858.86839870645 5715.0056328124 0.000339981895169366 0.0446100933982274 0.00542812904760241 931446009.83993 -247256550.525009 6.29313182995549
      91  0.005428129 -2.4725659e+08            0 -2.4725655e+08    6.2931318 
0.89 0.521556171185844 2858.86840212554 5715.00563281249 0.000343835449009371 0.0446062448089312 0.00555389483922053 931446009.83993 -247256548.627101 5.8352138349437
      92 0.0055538948 -2.4725659e+08            0 -2.4725655e+08    5.8352138 
0.9 0.51858407859881 2858.86840558316 5715.00563281253 0.0003476886685122 0.0446023529228611 0.00568261563893461 931446009.83993 -247256546.686277 5.37211334134026
      93 0.0056826156 -2.4725659e+08            0 -2.4725655e+08    5.3721133 
0.91 0.515581489765238 2858.86840907931 5715.00563281254 0.000351541549966255 0.0445984184037464 0.00581421775743822 931446009.83993 -247256544.703499 4.90429330934643
      94 0.0058142178 -2.4725659e+08            0 -2.4725654e+08    4.9042933 
0.92 0.512551367877801 2858.86841261399 5715.00563281255 0.000355394089675849 0.0445944409562284 0.00594859737405346 931446009.83993 -247256542.679316 4.43221816989917
      95 0.0059485974 -2.4725659e+08            0 -2.4725654e+08    4.4322182 
0.93 0.50949670330097 2858.8684161872 5715.00563281258 0.000359246283914507 0.0445904201628652 0.00608573476560092 931446009.83993 -247256540.614824 3.9563530027757
      96 0.0060857348 -2.4725659e+08            0 -2.4725654e+08     3.956353 
0.94 0.506420510619888 2858.86841979892 5715.00563281267 0.000363098128971522 0.0445863568061472 0.00622577264062834 931446009.83993 -247256538.51259 3.47715268791868
      97 0.0062257726 -2.4725659e+08            0 -2.4725654e+08    3.4771527 
0.95 0.503325825665338 2858.86842344916 5715.0056328127 0.000366949621157415 0.0445822505950708 0.00636880042741088 931446009.83993 -247256536.3768 2.99506658056302
      98 0.0063688004 -2.4725659e+08            0 -2.4725654e+08    2.9950666 
0.96 0.500215702517746 2858.86842713791 5715.00563281289 0.00037080075677381 0.0445781016146348 0.0065144266378351 931446009.83993 -247256534.212932 2.510563655746
      99 0.0065144266 -2.4725658e+08            0 -2.4725653e+08    2.5105637 
0.97 0.497093210493167 2858.86843086517 5715.0056328129 0.000374651532098972 0.0445739092390538 0.00666174658139411 931446009.83993 -247256532.02729 2.02415864214286
     100 0.0066617466 -2.4725658e+08            0 -2.4725653e+08    2.0241586 
0.98 0.493961431114247 2858.86843463094 5715.00563281293 0.000378501943384912 0.0445696734862909 0.00680985772204892 931446009.83993 -247256529.826652 1.53636947668399
     101 0.0068098577 -2.4725658e+08            0 -2.4725653e+08    1.5363695 
0.99 0.490823455069129 2858.86843843521 5715.00563281303 0.000382351986896979 0.0445653946472019 0.00695825168217864 931446009.83993 -247256527.617651 1.04768465335474
     102 0.0069582517 -2.4725658e+08            0 -2.4725653e+08    1.0476847 
1 0.487682379161316 2858.86844227798 5715.00563281306 0.000386201658885015 0.0445610720718212 0.00710674062164206 931446009.83993 -247256525.405943 0.558589054852367
     103 0.0071067406 -2.4725658e+08            0 -2.4725653e+08   0.55858905 
1.01 0.484541303253503 2858.86844615925 5715.00563281307 0.00039005095560357 0.0445567065192615 0.00725521577386689 931446009.83993 -247256523.195818 0.069554623028901
     104 0.0072552158 -2.4725658e+08            0 -2.4725652e+08  0.069554623 
1.02 0.481403327208384 2858.868450079 5715.0056328131 0.000393899873358807 0.0445522984251921 0.00740355192259716 931446009.83993 -247256520.990169 -0.418977705746727
     105 0.0074035519 -2.4725658e+08            0 -2.4725652e+08  -0.41897771 
1.03 0.478271547829464 2858.86845403724 5715.0056328132 0.000397748408447142 0.0445478471283798 0.00755161717472023 931446009.83993 -247256518.791043 -0.906575554356082
     106 0.0075516172 -2.4725658e+08            0 -2.4725652e+08  -0.90657555 
1.04 0.475149055804885 2858.86845803397 5715.00563281322 0.000401596557160756 0.0445433531919964 0.0076992516383426 931446009.83993 -247256516.600181 -1.39277138573948
     107 0.0076992516 -2.4725658e+08            0 -2.4725652e+08   -1.3927714 
1.05 0.472038932657293 2858.86846206917 5715.00563281325 0.000405444315801007 0.0445388162652992 0.00784635831548203 931446009.83993 -247256514.419753 -1.87703874844338
     108 0.0078463583 -2.4725658e+08            0 -2.4725651e+08   -1.8770387 
1.06 0.468944247702743 2858.86846614285 5715.00563281343 0.000409291680663397 0.0445342365635023 0.0079930060307941 931446009.83993 -247256512.253206 -2.358840301493
     109  0.007993006 -2.4725657e+08            0 -2.4725651e+08   -2.3588403 
1.07 0.465868055021661 2858.86847025501 5715.00563281347 0.000413138648040401 0.0445296138012299 0.00813918341782953 931446009.83993 -247256510.105109 -2.83767303138711
     110 0.0081391834 -2.4725657e+08            0 -2.4725651e+08    -2.837673 
1.08 0.46281339044483 2858.86847440563 5715.00563281357 0.000416985214211952 0.0445249479735803 0.00828444165533896 931446009.83993 -247256507.981068 -3.3130555216045
     111 0.0082844417 -2.4725657e+08            0 -2.4725651e+08   -3.3130555 
1.09 0.459783268557393 2858.86847859471 5715.0056328136 0.000420831375468186 0.0445202393216437 0.00842795387009201 931446009.83993 -247256505.887005 -3.78453140926008
     112 0.0084279539 -2.4725657e+08            0 -2.4725651e+08   -3.7845314 
1.1 0.456780679723821 2858.86848282226 5715.00563281361 0.000424677128100409 0.044515487631381 0.00856897703678615 931446009.83993 -247256503.82882 -4.25167947014272
     113  0.008568977 -2.4725657e+08            0 -2.472565e+08   -4.2516795 
1.11 0.453808587136787 2858.86848708825 5715.00563281364 0.000428522468394993 0.0445106930026427 0.00870716175070398 931446009.83993 -247256501.812274 -4.71408383533859
     114 0.0087071618 -2.4725657e+08            0 -2.472565e+08   -4.7140838 
1.12 0.450869923892848 2858.8684913927 5715.00563281374 0.000432367392652485 0.0445058556637414 0.008842408546174 931446009.83993 -247256499.841678 -5.17129347875378
     115 0.0088424085 -2.4725657e+08            0 -2.472565e+08   -5.1712935 
1.13 0.447967590097838 2858.8684957356 5715.00563281377 0.000436211897170528 0.044500975319101 0.00897466065968591 931446009.83993 -247256497.920244 -5.62281999435994
     116 0.0089746607 -2.4725657e+08            0 -2.472565e+08     -5.62282 
1.14 0.445104450004809 2858.86850011694 5715.00563281396 0.00044005597825336 0.0444960524170666 0.00910387465559984 931446009.83993 -247256496.049755 -6.06818517917307
     117 0.0091038747 -2.4725657e+08            0 -2.472565e+08   -6.0681852 
1.15 0.442283329187361 2858.86850453672 5715.00563281399 0.000443899632237524 0.0444910872570954 0.00922997789359844 931446009.83993 -247256494.231406 -6.50694591435159
     118 0.0092299779 -2.4725657e+08            0 -2.4725649e+08   -6.5069459 
1.16 0.439507011751144 2858.86850899494 5715.00563281409 0.000447742855455107 0.044486079436662 0.00935284920253049 931446009.83993 -247256492.465887 -6.93867151459069
     119 0.0093528492 -2.4725657e+08            0 -2.4725649e+08   -6.9386715 
1.17 0.436778237586279 2858.86851349158 5715.00563281413 0.000451585644216211 0.044481028849253 0.00947244113067396 931446009.83993 -247256490.754264 -7.36294223454196
     120 0.0094724411 -2.4725656e+08            0 -2.4725649e+08   -7.3629422 
1.18 0.434099699663417 2858.86851802665 5715.00563281414 0.000455427994824996 0.0444759354638279 0.00958886203127721 931446009.83993 -247256489.098512 -7.77936518983468
     121  0.009588862 -2.4725656e+08            0 -2.4725649e+08   -7.7793652 
1.19 0.431474041376103 2858.86852260014 5715.00563281417 0.000459269903564179 0.0444707988149707 0.00970215017924474 931446009.83993 -247256487.50143 -8.18755631878807
     122 0.0097021502 -2.4725656e+08            0 -2.4725649e+08   -8.1875563 
1.2 0.428903853932069 2858.86852721205 5715.00563281428 0.0004631113666861 0.0444656186648439 0.00981194468858555 931446009.83993 -247256485.966113 -8.58710489402663
     123 0.0098119447 -2.4725656e+08            0 -2.4725649e+08   -8.5871049 
1.21 0.426391673796019 2858.86853186237 5715.00563281431 0.000466952380432298 0.0444603950012083 0.00991760689580167 931446009.83993 -247256484.495631 -8.9775786088048
     124 0.0099176069 -2.4725656e+08            0 -2.4725648e+08   -8.9775786 
1.22 0.423939980186447 2858.86853655109 5715.0056328145 0.000470792941074417 0.0444551285332776 0.0100186725622888 931446009.83993 -247256483.093009 -9.3585643774608
     125  0.010018673 -2.4725656e+08            0 -2.4725648e+08   -9.3585644 
1.23 0.421551192628951 2858.86854127822 5715.00563281453 0.00047463304491701 0.0444498193137653 0.01011502683948 931446009.83993 -247256481.760566 -9.72968157058406
     126  0.010115027 -2.4725656e+08            0 -2.4725648e+08   -9.7296816 
1.24 0.419227668568448 2858.86854604376 5715.00563281463 0.000478472688287707 0.0444444678241982 0.0102067322568701 931446009.83993 -247256480.499734 -10.0905686313582
     127  0.010206732 -2.4725656e+08            0 -2.4725648e+08   -10.090569 
1.25 0.416971701042662 2858.86855084768 5715.00563281467 0.000482311867528737 0.0444390739210381 0.0102938607183834 931446009.83993 -247256479.310715 -10.4408900578873
     128  0.010293861 -2.4725656e+08            0 -2.4725648e+08    -10.44089 
1.26 0.414785516419175 2858.86855568999 5715.00563281468 0.000486150578988532 0.0444336378914622 0.0103764816823307 931446009.83993 -247256478.19269 -10.7803489043418
     129  0.010376482 -2.4725656e+08            0 -2.4725648e+08   -10.780349 
1.27 0.41267127219827 2858.86856057069 5715.0056328148 0.000489988819023846 0.044428159640962 0.0104546385044229 931446009.83993 -247256477.14438 -11.1086560216001
     130  0.010454639 -2.4725656e+08            0 -2.4725648e+08   -11.108656 
1.28 0.410631054883737 2858.86856548977 5715.00563281484 0.000493826583974477 0.044422638871467 0.0105283119487513 931446009.83993 -247256476.164206 -11.4254804738184
     131  0.010528312 -2.4725656e+08            0 -2.4725648e+08    -11.42548 
1.29 0.408666877923747 2858.86857044722 5715.00563281503 0.000497663870194703 0.0444170762162834 0.0105975732034578 931446009.83993 -247256475.250729 -11.7304610080022
     132  0.010597573 -2.4725656e+08            0 -2.4725648e+08   -11.730461 
1.3 0.406780679723821 2858.86857544305 5715.00563281506 0.000501500674032222 0.0444114708897901 0.0106626715621922 931446009.83993 -247256474.403185 -12.0232568972663
     133  0.010662672 -2.4725656e+08            0 -2.4725647e+08   -12.023257 
1.31 0.40497432173386 2858.86858047723 5715.00563281517 0.000505336991812005 0.0444058231513927 0.0107237787113691 931446009.83993 -247256473.621041 -12.3035627927758
     134  0.010723779 -2.4725656e+08            0 -2.4725647e+08   -12.303563 
1.32 0.403249586611115 2858.86858554979 5715.0056328152 0.000509172819836764 0.0444001322263884 0.0107807372727285 931446009.83993 -247256472.903824 -12.5711028656917
     135  0.010780737 -2.4725656e+08            0 -2.4725647e+08   -12.571103 
1.33 0.401608176460922 2858.86859066069 5715.00563281521 0.000513008154372575 0.0443943980412896 0.0108332115829624 931446009.83993 -247256472.250859 -12.8256367390311
     136  0.010833212 -2.4725656e+08            0 -2.4725647e+08   -12.825637 
1.34 0.40005171115693 2858.86859580995 5715.00563281534 0.000516842991699748 0.0443886209991676 0.0108810697696893 931446009.83993 -247256471.661156 -13.0669605928587
     137   0.01088107 -2.4725656e+08            0 -2.4725647e+08   -13.066961 
1.35 0.39858172674248 2858.86860099755 5715.00563281537 0.000520677328118408 0.0443828011555935 0.010924480807121 931446009.83993 -247256471.133277 -13.2948728684549
     138  0.010924481 -2.4725656e+08            0 -2.4725647e+08   -13.294873 
1.36 0.397199673914714 2858.8686062235 5715.00563281556 0.000524511159913234 0.044376938097472 0.0109636983194573 931446009.83993 -247256470.665166 -13.5091308751741
     139  0.010963698 -2.4725656e+08            0 -2.4725647e+08   -13.509131 
1.37 0.395906916592918 2858.86861148777 5715.0056328156 0.000528344483401792 0.0443710329993215 0.0109989634906526 931446009.83993 -247256470.253873 -13.7094772326575
     140  0.010998963 -2.4725656e+08            0 -2.4725647e+08   -13.709477 
1.38 0.394704730572491 2858.86861679038 5715.0056328157 0.000532177294963752 0.0443650861243411 0.0110305128337617 931446009.83993 -247256469.896011 -13.8956914264735
     141  0.011030513 -2.4725656e+08            0 -2.4725647e+08   -13.895691 
1.39 0.393594302265894 2858.86862213132 5715.00563281574 0.000536009590983217 0.0443590973120142 0.0110585119589608 931446009.83993 -247256469.587988 -14.067588239743
     142  0.011058512 -2.4725656e+08            0 -2.4725647e+08   -14.067588 
1.4 0.392576727531801 2858.86862751058 5715.00563281577 0.000539841367843949 0.0443530667150041 0.0110830709489226 931446009.83993 -247256469.325897 -14.2250026174294
     143  0.011083071 -2.4725656e+08            0 -2.4725647e+08   -14.225003 
1.41 0.391653010593622 2858.86863292815 5715.00563281588 0.000543672621927718 0.0443469941344444 0.0111044159870204 931446009.83993 -247256469.106132 -14.3677960365524
     144  0.011104416 -2.4725656e+08            0 -2.4725647e+08   -14.367796 
1.42 0.390824063048453 2858.86863838403 5715.00563281592 0.000547503349586083 0.0443408790698342 0.0111229685970022 931446009.83993 -247256468.925324 -14.4958620005611
     145  0.011122969 -2.4725656e+08            0 -2.4725647e+08   -14.495862 
1.43 0.390090702967442 2858.86864387821 5715.00563281613 0.000551333547142719 0.0443347213760826 0.0111390971051811 931446009.83993 -247256468.780314 -14.6090985545312
     146  0.011139097 -2.4725656e+08            0 -2.4725647e+08   -14.609099 
1.44 0.389453654088447 2858.8686494107 5715.00563281623 0.000555163210898645 0.04432852067373 0.0111528706688746 931446009.83993 -247256468.667593 -14.7073694722822
     147  0.011152871 -2.4725656e+08            0 -2.4725647e+08   -14.707369 
1.45 0.388913545101802 2858.86865498148 5715.00563281627 0.000558992337140891 0.044322277018431 0.0111642629080213 931446009.83993 -247256468.583428 -14.7905302037046
     148  0.011164263 -2.4725656e+08            0 -2.4725647e+08    -14.79053 
1.46 0.388470909029869 2858.86866059055 5715.00563281628 0.000562820922156181 0.0443159903473765 0.0111734679730172 931446009.83993 -247256468.524107 -14.8584743715981
     149  0.011173468 -2.4725656e+08            0 -2.4725647e+08   -14.858474 
1.47 0.388126182701008 2858.8686662379 5715.00563281641 0.000566648962249765 0.0443096611523765 0.0111808866031056 931446009.83993 -247256468.485514 -14.9111281478191
     150  0.011180887 -2.4725656e+08            0 -2.4725647e+08   -14.911128 
1.48 0.387879706318489 2858.86867192353 5715.00563281645 0.000570476453755139 0.0443032895954469 0.0111869370708816 931446009.83993 -247256468.463446 -14.9484424081526
     151  0.011186937 -2.4725656e+08            0 -2.4725647e+08   -14.948442 
1.49 0.387731723124743 2858.86867764743 5715.00563281664 0.000574303392995878 0.0442968752849733 0.0111919802076864 931446009.83993 -247256468.453371 -14.9704060295234
     152   0.01119198 -2.4725656e+08            0 -2.4725647e+08   -14.970406 
1.5 0.387682379161316 2858.86868340959 5715.00563281676 0.000578129776334079 0.0442904195043809 0.0111963443297559 931446009.83993 -247256468.450785 -14.9770461522535
     153  0.011196344 -2.4725656e+08            0 -2.4725647e+08   -14.977046 
1.51 0.387731723124743 2858.86868921002 5715.0056328168 0.000581955600180444 0.0442839220955516 0.0112002681091519 931446009.83993 -247256468.451267 -14.9683908181108
     154  0.011200268 -2.4725656e+08            0 -2.4725647e+08   -14.968391 
1.52 0.387879706318489 2858.86869504871 5715.00563281682 0.000585780860946876 0.0442773832443783 0.011203905921145 931446009.83993 -247256468.4504 -14.9444255073289
     155  0.011203906 -2.4725656e+08            0 -2.4725647e+08   -14.944426 
1.53 0.388126182701008 2858.86870092564 5715.00563281694 0.000589605555027111 0.0442708023444239 0.0112075524716958 931446009.83993 -247256468.444005 -14.9051230209681
     156  0.011207552 -2.4725656e+08            0 -2.4725647e+08   -14.905123 
1.54 0.388470909029868 2858.86870684081 5715.00563281698 0.000593429678798758 0.0442641796286872 0.0112116999968776 931446009.83993 -247256468.42799 -14.8504917881227
     157    0.0112117 -2.4725656e+08            0 -2.4725647e+08   -14.850492 
1.55 0.388913545101802 2858.86871279423 5715.00563281719 0.000597253228658984 0.0442575153170453 0.0112167699843053 931446009.83993 -247256468.398491 -14.7805731832921
     158   0.01121677 -2.4725656e+08            0 -2.4725647e+08   -14.780573 
1.56 0.389453654088447 2858.86871878588 5715.0056328173 0.000601076200976124 0.0442508085220521 0.0112229424336629 931446009.83993 -247256468.350957 -14.6954389286743
     159  0.011222942 -2.4725656e+08            0 -2.4725647e+08   -14.695439 
1.57 0.390090702967441 2858.86872481576 5715.00563281734 0.000604898592082649 0.0442440593008778 0.0112303378899419 931446009.83993 -247256468.280993 -14.5952000716697
     160  0.011230338 -2.4725656e+08            0 -2.4725647e+08     -14.5952 
1.58 0.390824063048453 2858.86873088385 5715.00563281738 0.000608720398304552 0.0442372674463535 0.0112392641100799 931446009.83993 -247256468.18418 -14.4799982253153
     161  0.011239264 -2.4725656e+08            0 -2.4725647e+08   -14.479998 
1.59 0.391653010593622 2858.86873699016 5715.00563281748 0.000612541615972518 0.0442304332742708 0.0112501458752837 931446009.83993 -247256468.056336 -14.3499668829995
     162  0.011250146 -2.4725656e+08            0 -2.4725647e+08   -14.349967 
1.6 0.392576727531801 2858.86874313469 5715.00563281769 0.000616362241409921 0.0442235562996153 0.0112633269124363 931446009.83993 -247256467.893389 -14.2052001006182
     163  0.011263327 -2.4725656e+08            0 -2.4725647e+08     -14.2052 
1.61 0.393594302265893 2858.86874931741 5715.00563281774 0.000620182270969014 0.0442166376759817 0.0112790623473775 931446009.83993 -247256467.691555 -14.0457932785669
     164  0.011279062 -2.4725656e+08            0 -2.4725647e+08   -14.045793 
1.62 0.394704730572491 2858.86875553833 5715.00563281786 0.000624001701047958 0.0442096773125532 0.0112975075064522 931446009.83993 -247256467.447544 -13.8718847248126
     165  0.011297508 -2.4725656e+08            0 -2.4725647e+08   -13.871885 
1.63 0.395906916592918 2858.86876179744 5715.00563281788 0.000627820528047577 0.0442026753619471 0.0113186229561082 931446009.83993 -247256467.158484 -13.6836425023909
     166  0.011318623 -2.4725655e+08            0 -2.4725647e+08   -13.683643 
1.64 0.397199673914714 2858.86876809474 5715.00563281794 0.000631638748353787 0.0441956313262557 0.0113422414093421 931446009.83993 -247256466.821456 -13.4812570674413
     167  0.011342241 -2.4725655e+08            0 -2.4725647e+08   -13.481257 
1.65 0.398581726742479 2858.86877443022 5715.00563281805 0.000635456358357299 0.0441885458144752 0.0113683026497268 931446009.83993 -247256466.43402 -13.2649487883381
     168  0.011368303 -2.4725655e+08            0 -2.4725647e+08   -13.264949 
1.66 0.400051711156929 2858.86878080387 5715.00563281824 0.00063927335444973 0.0441814182385594 0.0113969190231818 931446009.83993 -247256465.993762 -13.0349604820938
     169  0.011396919 -2.4725655e+08            0 -2.4725647e+08    -13.03496 
1.67 0.401608176460922 2858.86878721569 5715.00563281837 0.000643089733001948 0.0441742487062291 0.0114281264480908 931446009.83993 -247256465.498055 -12.7915229680342
     170  0.011428126 -2.4725655e+08            0 -2.4725647e+08   -12.791523 
1.68 0.403249586611114 2858.86879366566 5715.00563281841 0.000646905490365593 0.044167036664497 0.0114617651860035 931446009.83993 -247256464.944025 -12.5348335276629
     171  0.011461765 -2.4725655e+08            0 -2.4725646e+08   -12.534834 
1.69 0.40497432173386 2858.8688001538 5715.00563281845 0.000650720622882672 0.0441597824434624 0.0114977418071262 931446009.83993 -247256464.328844 -12.2651010602335
     172  0.011497742 -2.4725655e+08            0 -2.4725646e+08   -12.265101 
1.7 0.406780679723821 2858.86880668008 5715.00563281857 0.000654535126893944 0.0441524856840137 0.011536236441954 931446009.83993 -247256463.649705 -11.9825776468299
     173  0.011536236 -2.4725655e+08            0 -2.4725646e+08   -11.982578 
1.71 0.408666877923747 2858.8688132445 5715.00563281877 0.000658348998764456 0.0441451473076374 0.0115776243910343 931446009.83993 -247256462.904479 -11.6875454950414
     174  0.011577624 -2.4725655e+08            0 -2.4725646e+08   -11.687545 
1.72 0.410631054883737 2858.86881984706 5715.0056328189 0.000662162234883203 0.0441377669472944 0.0116223602006305 931446009.83993 -247256462.091486 -11.3803196944602
     175   0.01162236 -2.4725655e+08            0 -2.4725646e+08    -11.38032 
1.73 0.412671272198269 2858.86882648774 5715.00563281894 0.000665974831621775 0.0441303445670136 0.0116709850368029 931446009.83993 -247256461.209619 -11.0612588872315
     176  0.011670985 -2.4725655e+08            0 -2.4725646e+08   -11.061259 
1.74 0.414785516419175 2858.86883316655 5715.00563281898 0.000669786785377455 0.0441228807976403 0.0117240899276374 931446009.83993 -247256460.258776 -10.7307511743658
     177   0.01172409 -2.4725655e+08            0 -2.4725646e+08   -10.730751 
1.75 0.416971701042661 2858.86883988348 5715.00563281909 0.000673598092588124 0.0441153759482281 0.0117821387960985 931446009.83993 -247256459.239153 -10.3891654358017
     178  0.011782139 -2.4725655e+08            0 -2.4725646e+08   -10.389165 
1.76 0.419227668568447 2858.86884663851 5715.0056328193 0.000677408749685984 0.0441078295782777 0.0118454598703534 931446009.83993 -247256458.151106 -10.0368239158131
     179   0.01184546 -2.4725655e+08            0 -2.4725646e+08   -10.036824 
1.77 0.42155119262895 2858.86885343165 5715.00563281943 0.000681218753101317 0.0441002420837995 0.0119144250261718 931446009.83993 -247256456.995442 -9.67404736562315
     180  0.011914425 -2.4725655e+08            0 -2.4725646e+08   -9.6740474 
1.78 0.423939980186446 2858.86886026289 5715.00563281947 0.00068502809927554 0.044092613326569 0.0119893869590905 931446009.83993 -247256455.772804 -9.3011803598619
     181  0.011989387 -2.4725655e+08            0 -2.4725646e+08   -9.3011804 
1.79 0.426391673796018 2858.86886713222 5715.00563281951 0.000688836784611666 0.0440849425556966 0.0120703957746106 931446009.83993 -247256454.483533 -8.91857878089844
     182  0.012070396 -2.4725655e+08            0 -2.4725645e+08   -8.9185788 
1.8 0.428903853932068 2858.86887403963 5715.00563281964 0.000692644805477795 0.044077229713863 0.012157113794722 931446009.83993 -247256453.127653 -8.52661760115324
     183  0.012157114 -2.4725655e+08            0 -2.4725645e+08   -8.5266176 
1.81 0.431474041376102 2858.86888098511 5715.00563281984 0.000696452158245078 0.04406947492889 0.0122490413474147 931446009.83993 -247256451.705087 -8.12569837913624
     184  0.012249041 -2.4725655e+08            0 -2.4725645e+08   -8.1256984 
1.82 0.434099699663416 2858.86888796867 5715.00563281996 0.000700258839309815 0.0440616786552878 0.0123457050003645 931446009.83993 -247256450.216177 -7.71623323530712
     185  0.012345705 -2.4725655e+08            0 -2.4725645e+08   -7.7162332 
1.83 0.436778237586278 2858.86889499029 5715.00563282001 0.000704064845095008 0.0440538410566996 0.012446591728378 931446009.83993 -247256448.661762 -7.29860277183159
     186  0.012446592 -2.4725655e+08            0 -2.4725645e+08   -7.2986028 
1.84 0.439507011751144 2858.86890204997 5715.00563282005 0.0007078701720198 0.0440459618801672 0.0125511403139732 931446009.83993 -247256447.043125 -6.87314920234331
     187   0.01255114 -2.4725654e+08            0 -2.4725645e+08   -6.8731492 
1.85 0.442283329187361 2858.86890914769 5715.00563282018 0.000711674816493957 0.0440380411615404 0.0126588718775845 931446009.83993 -247256445.362586 -6.44023513246084
     188  0.012658872 -2.4725654e+08            0 -2.4725645e+08   -6.4402351 
1.86 0.445104450004808 2858.86891628346 5715.0056328204 0.00071547877494912 0.0440300793714148 0.0127693721940495 931446009.83993 -247256443.623215 -6.00026866411215
     189  0.012769372 -2.4725654e+08            0 -2.4725644e+08   -6.0002687 
1.87 0.447967590097837 2858.86892345727 5715.00563282051 0.000719282043805404 0.0440220757723507 0.0128822144486053 931446009.83993 -247256441.828423 -5.55368345618112
     190  0.012882214 -2.4725654e+08            0 -2.4725644e+08   -5.5536835 
1.88 0.450869923892848 2858.8689306691 5715.00563282055 0.000723084619469253 0.0440140307852832 0.0129970810653285 931446009.83993 -247256439.981968 -5.10094280978503
     191  0.012997081 -2.4725654e+08            0 -2.4725644e+08   -5.1009428 
1.89 0.453808587136786 2858.86893791896 5715.00563282068 0.000726886498371127 0.0440059445452764 0.0131139907732146 931446009.83993 -247256438.087415 -4.64254228336027
     192  0.013113991 -2.4725654e+08            0 -2.4725644e+08   -4.6425423 
1.9 0.45678067972382 2858.86894520683 5715.0056328209 0.000730687676911032 0.0439978162122358 0.013233262659895 931446009.83993 -247256436.148498 -4.17898820034774
     193  0.013233263 -2.4725654e+08            0 -2.4725644e+08   -4.1789882 
1.91 0.459783268557392 2858.86895253271 5715.00563282094 0.000734488151461256 0.0439896459844963 0.0133551985674994 931446009.83993 -247256434.16834 -3.7107541787852
     194  0.013355199 -2.4725654e+08            0 -2.4725643e+08   -3.7107542 
1.92 0.462813390444829 2858.86895989659 5715.00563282107 0.000738287918418157 0.0439814342209974 0.0134799724101371 931446009.83993 -247256432.149488 -3.2382721632414
     195  0.013479972 -2.4725654e+08            0 -2.4725643e+08   -3.2382722 
1.93 0.465868055021661 2858.86896729847 5715.00563282112 0.000742086974177482 0.0439731805486617 0.013607771246568 931446009.83993 -247256430.094568 -2.76198589499729
     196  0.013607771 -2.4725654e+08            0 -2.4725643e+08   -2.7619859 
1.94 0.468944247702742 2858.86897473834 5715.00563282124 0.000745885315131405 0.0439648852578588 0.0137387825015727 931446009.83993 -247256428.006305 -2.28236262860822
     197  0.013738783 -2.4725653e+08            0 -2.4725643e+08   -2.2823626 
1.95 0.472038932657292 2858.86898221618 5715.00563282146 0.000749682937735307 0.0439565495215148 0.0138730326275715 931446009.83993 -247256425.887922 -1.79987351273164
     198  0.013873033 -2.4725653e+08            0 -2.4725643e+08   -1.7998735 
1.96 0.475149055804884 2858.86898973199 5715.00563282158 0.000753479838480591 0.0439481730007654 0.0140103318422858 931446009.83993 -247256423.742945 -1.31500458904708
     199  0.014010332 -2.4725653e+08            0 -2.4725642e+08   -1.3150046 
1.97 0.478271547829463 2858.86899728577 5715.00563282162 0.000757276013836838 0.0439397555291575 0.0141503439090169 931446009.83993 -247256421.575916 -0.828268002184693
     200  0.014150344 -2.4725653e+08            0 -2.4725642e+08    -0.828268 
1.98 0.481403327208383 2858.86900487751 5715.00563282175 0.000761071460297211 0.0439312978191743 0.0142925583005755 931446009.83993 -247256419.391652 -0.34017589468567
     201  0.014292558 -2.4725653e+08            0 -2.4725642e+08  -0.34017589 
1.99 0.484541303253502 2858.8690125072 5715.00563282197 0.000764866174382149 0.0439227997898313 0.01443619887505 931446009.83993 -247256417.195558 0.148800953036276
     202  0.014436199 -2.4725653e+08            0 -2.4725642e+08   0.14880095 
2 0.487682379161315 2858.86902017484 5715.0056328221 0.000768660152569549 0.0439142605371245 0.014580421336355 931446009.83993 -247256414.992704 0.638234493528836
     203  0.014580421 -2.4725653e+08            0 -2.4725641e+08   0.63823449 
2.01 0.490823455069128 2858.86902788041 5715.00563282214 0.000772453391310798 0.0439056803513361 0.0147246269677094 931446009.83993 -247256412.788186 1.1276872238902
     204  0.014724627 -2.4725653e+08            0 -2.4725641e+08    1.1276872 
2.02 0.493961431114246 2858.8690356239 5715.00563282228 0.000776245887046888 0.0438970587015526 0.0148684451944364 931446009.83993 -247256410.586815 1.61669899019603
     205  0.014868445 -2.4725653e+08            0 -2.4725641e+08     1.616699 
2.03 0.497093210493166 2858.86904340532 5715.00563282249 0.000780037636186913 0.04388839538015 0.0150115247843095 931446009.83993 -247256408.39268 2.10479991791245
     206  0.015011525 -2.4725652e+08            0 -2.4725641e+08    2.1047999 
2.04 0.500215702517745 2858.86905122466 5715.00563282258 0.000783828635110708 0.0438796899174251 0.0151535125096865 931446009.83993 -247256406.209217 2.59149831205684
     207  0.015153513 -2.4725652e+08            0 -2.4725641e+08    2.5914983 
2.05 0.503325825665337 2858.8690590819 5715.00563282267 0.000787618880178491 0.0438709423287936 0.0152942152511952 931446009.83993 -247256404.039657 3.07627722787957
     208  0.015294215 -2.4725652e+08            0 -2.472564e+08    3.0762772 
2.06 0.506420510619887 2858.86906697703 5715.00563282272 0.000791408367766855 0.0438621529780631 0.015433600648927 931446009.83993 -247256401.887309 3.55862391929887
     209  0.015433601 -2.4725652e+08            0 -2.472564e+08    3.5586239 
2.07 0.509496703300969 2858.86907491006 5715.00563282285 0.000795197094288454 0.0438533223362798 0.0155716132690315 931446009.83993 -247256399.755643 4.03807006822835
     210  0.015571613 -2.4725652e+08            0 -2.472564e+08    4.0380701 
2.08 0.5125513678778 2858.86908288098 5715.00563282307 0.000798985056189183 0.04384445070194 0.0157081659013544 931446009.83993 -247256397.648374 4.51418617611856
     211  0.015708166 -2.4725652e+08            0 -2.472564e+08    4.5141862 
2.09 0.515581489765237 2858.86909088977 5715.00563282321 0.000802772249948956 0.0438355385641352 0.0158431980841601 931446009.83993 -247256395.569843 4.98652662952924
     212  0.015843198 -2.4725652e+08            0 -2.472564e+08    4.9865266 
2.1 0.518584078598809 2858.86909893642 5715.00563282325 0.0008065586720935 0.0438265864944987 0.0159765192235463 931446009.83993 -247256393.524599 5.45462278270577
     213  0.015976519 -2.4725652e+08            0 -2.4725639e+08    5.4546228 
2.11 0.521556171185844 2858.86910702094 5715.00563282339 0.000810344319160654 0.043817594201762 0.0161076808489247 931446009.83993 -247256391.517286 5.91800327201854
     214  0.016107681 -2.4725652e+08            0 -2.4725639e+08    5.9180033 
2.12 0.524494834429782 2858.86911514331 5715.00563282361 0.0008141291876598 0.0438085613183492 0.0162361571922647 931446009.83993 -247256389.552217 6.37618461324824
     215  0.016236157 -2.4725652e+08            0 -2.4725639e+08    6.3761846 
2.13 0.527397168224792 2858.86912330352 5715.00563282374 0.000817913274085892 0.0437994878778613 0.0163616030369312 931446009.83993 -247256387.633408 6.8286761339638
     216  0.016361603 -2.4725651e+08            0 -2.4725639e+08    6.8286761 
2.14 0.530260308317821 2858.86913150157 5715.00563282379 0.000821696574931495 0.0437903737913027 0.0164837802929008 931446009.83993 -247256385.764581 7.27501130354615
     217   0.01648378 -2.4725651e+08            0 -2.4725639e+08    7.2750113 
2.15 0.533081429135269 2858.86913973745 5715.00563282392 0.000825479086676012 0.0437812188430154 0.0166023393747889 931446009.83993 -247256383.948438 7.71477549832924
     218  0.016602339 -2.4725651e+08            0 -2.4725638e+08    7.7147755 
2.16 0.535857746571486 2858.86914801116 5715.00563282414 0.00082926080579034 0.043772023051746 0.0167169285602797 931446009.83993 -247256382.186903 8.14758962295018
     219  0.016716929 -2.4725651e+08            0 -2.4725638e+08    8.1475896 
2.17 0.538586520736351 2858.86915632267 5715.00563282428 0.000833041728721775 0.0437627858522384 0.0168274055875553 931446009.83993 -247256380.481873 8.57305840348501
     220  0.016827406 -2.4725651e+08            0 -2.4725638e+08    8.5730584 
2.18 0.541265058659214 2858.86916467199 5715.00563282441 0.000836821851925351 0.0437535079890207 0.016933779703036 931446009.83993 -247256378.834938 8.99076754960966
     221   0.01693378 -2.4725651e+08            0 -2.4725638e+08    8.9907675 
2.19 0.543890716946527 2858.86917305911 5715.00563282463 0.000840601171885083 0.043744189388448 0.0170360970545878 931446009.83993 -247256377.247669 9.40030060831959
     222  0.017036097 -2.4725651e+08            0 -2.4725638e+08    9.4003006 
2.2 0.546460904390561 2858.86918148401 5715.00563282477 0.000844379685095916 0.0437348303772304 0.0171344963529419 931446009.83993 -247256375.721761 9.80122380318996
     223  0.017134496 -2.4725651e+08            0 -2.4725638e+08    9.8012238 
2.21 0.548973084526612 2858.8691899467 5715.00563282481 0.000848157388080166 0.043725431262324 0.0172292187392072 931446009.83993 -247256374.259239 10.1930892629587
     224  0.017229219 -2.4725651e+08            0 -2.4725637e+08    10.193089 
2.22 0.551424778136183 2858.86919844716 5715.00563282495 0.000851934277377313 0.0437159921342395 0.0173203682306353 931446009.83993 -247256372.862212 10.5754739224884
     225  0.017320368 -2.4725651e+08            0 -2.4725637e+08    10.575474 
2.23 0.55381356569368 2858.86920698539 5715.00563282517 0.000855710349493472 0.0437065121298753 0.017407783809892 931446009.83993 -247256371.532466 10.9480114602488
     226  0.017407784 -2.4725651e+08            0 -2.4725637e+08    10.948011 
2.24 0.556137089754183 2858.86921556137 5715.00563282531 0.000859485600921827 0.0436969918130608 0.0174912869275841 931446009.83993 -247256370.271408 11.3103757799657
     227  0.017491287 -2.4725651e+08            0 -2.4725637e+08    11.310376 
2.25 0.558393057279969 2858.8692241751 5715.00563282537 0.000863260028172397 0.0436874310096648 0.0175708311560306 931446009.83993 -247256369.08033 11.6622373618523
     228  0.017570831 -2.4725651e+08            0 -2.4725637e+08    11.662237 
2.26 0.560579241903456 2858.86923282657 5715.00563282551 0.000867033627744385 0.0436778296434513 0.0176463345588679 931446009.83993 -247256367.959679 12.0032625680374
     229  0.017646335 -2.472565e+08            0 -2.4725637e+08    12.003263 
2.27 0.56269348612436 2858.86924151577 5715.00563282573 0.000870806396094162 0.0436681867990198 0.0177175901250176 931446009.83993 -247256366.90936 12.3331277249221
     230   0.01771759 -2.472565e+08            0 -2.4725637e+08    12.333128 
2.28 0.564733703438893 2858.8692502427 5715.00563282588 0.000874578329648048 0.0436585026959777 0.01778440873344 931446009.83993 -247256365.92851 12.6514973511042
     231  0.017784409 -2.472565e+08            0 -2.4725637e+08    12.651497 
2.29 0.566697880398883 2858.86925900734 5715.00563282592 0.000878349424850265 0.04364877752927 0.0178467296414091 931446009.83993 -247256365.0162 12.9580240621304
     232   0.01784673 -2.472565e+08            0 -2.4725637e+08    12.958024 
2.3 0.568584078598809 2858.86926780969 5715.00563282623 0.000882119678148158 0.0436390111762067 0.0179045638778485 931446009.83993 -247256364.171086 13.2523919634122
     233  0.017904564 -2.472565e+08            0 -2.4725636e+08    13.252392 
2.31 0.570390436588771 2858.86927664973 5715.00563282637 0.000885889086015522 0.0436292043718047 0.0179580063356701 931446009.83993 -247256363.391788 13.5343427626788
     234  0.017958006 -2.472565e+08            0 -2.4725636e+08    13.534343 
2.32 0.572115171711516 2858.86928552747 5715.00563282642 0.000889657644980494 0.0436193576392337 0.0180073223796089 931446009.83993 -247256362.676951 13.8036465684988
     235  0.018007322 -2.472565e+08            0 -2.4725636e+08    13.803647 
2.33 0.573756581861709 2858.86929444288 5715.00563282656 0.000893425351596698 0.0436094710453397 0.0180528081113276 931446009.83993 -247256362.025487 14.0600551304485
     236  0.018052808 -2.472565e+08            0 -2.4725636e+08    14.060055 
2.34 0.575313047165701 2858.86930339597 5715.0056328268 0.000897192202441448 0.0435995450717715 0.0180946073241927 931446009.83993 -247256361.435909 14.3033078374115
     237  0.018094607 -2.472565e+08            0 -2.4725636e+08    14.303308 
2.35 0.576783031580151 2858.86931238673 5715.00563282694 0.000900958194084296 0.0435895790571411 0.0181327626029882 931446009.83993 -247256360.906544 14.5331517898697
     238  0.018132763 -2.472565e+08            0 -2.4725636e+08    14.533152 
2.36 0.578165084407916 2858.86932141514 5715.00563282699 0.000904723323102319 0.0435795738370839 0.0181673361443047 931446009.83993 -247256360.435488 14.7493234027912
     239  0.018167336 -2.472565e+08            0 -2.4725636e+08    14.749323 
2.37 0.579457841729712 2858.8693304812 5715.0056328273 0.00090848758609577 0.0435695291125234 0.0181984547474857 931446009.83993 -247256360.020615 14.9515546059136
     240  0.018198455 -2.472565e+08            0 -2.4725636e+08    14.951555 
2.38 0.580660027750139 2858.86933958489 5715.00563282744 0.000912250979625437 0.043559444268818 0.0182262898313546 931446009.83993 -247256359.659214 15.1396251210501
     241   0.01822629 -2.472565e+08            0 -2.4725636e+08    15.139625 
2.39 0.581770456056737 2858.86934872621 5715.00563282749 0.000916013500217648 0.0435493191228682 0.0182509997552794 931446009.83993 -247256359.34815 15.3133827454629
     242     0.018251 -2.472565e+08            0 -2.4725636e+08    15.313383 
2.4 0.58278803079083 2858.86935790516 5715.00563282765 0.000919775144356981 0.0435391528911249 0.01827266829033 931446009.83993 -247256359.084141 15.4727016595873
     243  0.018272668 -2.472565e+08            0 -2.4725636e+08    15.472702 
2.41 0.583711747729009 2858.86936712172 5715.00563282787 0.000923535908527267 0.0435289463399066 0.0182913377485502 931446009.83993 -247256358.863487 15.617438770069
     244  0.018291338 -2.472565e+08            0 -2.4725636e+08    15.617439 
2.42 0.584540695274178 2858.86937637588 5715.00563282801 0.00092729578923588 0.0435186992478773 0.0183071663896532 931446009.83993 -247256358.682415 15.74745030224
     245  0.018307166 -2.472565e+08            0 -2.4725636e+08     15.74745 
2.43 0.585274055355189 2858.86938566763 5715.00563282815 0.000931054782994148 0.0435084119279646 0.0183204029967425 931446009.83993 -247256358.537253 15.8626047505524
     246  0.018320403 -2.472565e+08            0 -2.4725636e+08    15.862605 
2.44 0.585911104234183 2858.86939499697 5715.00563282838 0.000934812886335467 0.0434980845781365 0.0183312160756329 931446009.83993 -247256358.42436 15.962754539564
     247  0.018331216 -2.472565e+08            0 -2.4725636e+08    15.962755 
2.45 0.586451213220828 2858.86940436389 5715.00563282853 0.000938570095801819 0.0434877171992746 0.0183398027661962 931446009.83993 -247256358.339774 16.0477490515879
     248  0.018339803 -2.472565e+08            0 -2.4725636e+08    16.047749 
2.46 0.586893849292762 2858.86941376838 5715.00563282859 0.000942326407957754 0.0434773103128826 0.0183464974319223 931446009.83993 -247256358.279801 16.1174912370903
     249  0.018346497 -2.472565e+08            0 -2.4725636e+08    16.117491 
2.47 0.587238575621622 2858.86942321042 5715.00563282886 0.000946081819387288 0.0434668638481345 0.0183515171248439 931446009.83993 -247256358.240436 16.1719474634418
     250  0.018351517 -2.472565e+08            0 -2.4725636e+08    16.171947 
2.48 0.587485052004142 2858.86943269001 5715.00563282904 0.000949836326685711 0.043456378136963 0.0183549017356587 931446009.83993 -247256358.217564 16.2111024465363
     251  0.018354902 -2.472565e+08            0 -2.4725636e+08    16.211102 
2.49 0.587633035197888 2858.86944220714 5715.0056328291 0.000953589926438534 0.0434458526209589 0.0183569428232294 931446009.83993 -247256358.206677 16.2349338726172
     252  0.018356943 -2.472565e+08            0 -2.4725636e+08    16.234934 
2.5 0.587682379161314 2858.86945176181 5715.00563282925 0.000957342615215954 0.0434352875039769 0.0183582687329132 931446009.83993 -247256358.203595 16.2434300096887
     253  0.018358269 -2.472565e+08            0 -2.4725636e+08     16.24343 
2.51 0.587633035197888 2858.869461354 5715.0056328295 0.000961094389593837 0.043424682713467 0.0183592590898362 931446009.83993 -247256358.204079 16.2365826312505
     254  0.018359259 -2.472565e+08            0 -2.4725636e+08    16.236583 
2.52 0.587485052004142 2858.8694709837 5715.00563282962 0.000964845246129215 0.0434140378859037 0.0183599710811002 931446009.83993 -247256358.203475 16.2143599931169
     255  0.018359971 -2.472565e+08            0 -2.4725636e+08     16.21436 
2.53 0.587238575621622 2858.8694806509 5715.00563282978 0.000968595181355665 0.0434033528417968 0.0183608014147326 931446009.83993 -247256358.19721 16.1767406816651
     256  0.018360801 -2.472565e+08            0 -2.4725636e+08    16.176741 
2.54 0.586893849292762 2858.8694903556 5715.00563283001 0.000972344191815496 0.0433926279627718 0.0183623701407768 931446009.83993 -247256358.181395 16.1237643713908
     257   0.01836237 -2.472565e+08            0 -2.4725636e+08    16.123764 
2.55 0.586451213220828 2858.86950009779 5715.00563283015 0.000976092274055424 0.0433818629692628 0.018364808623755 931446009.83993 -247256358.151985 16.0555186514682
     258  0.018364809 -2.472565e+08            0 -2.4725636e+08    16.055519 
2.56 0.585911104234183 2858.86950987745 5715.00563283029 0.000979839424654129 0.0433710588808706 0.0183681513911243 931446009.83993 -247256358.104265 15.9721031474451
     259  0.018368151 -2.472565e+08            0 -2.4725636e+08    15.972103 
2.57 0.585274055355189 2858.86951969457 5715.00563283054 0.00098358564019931 0.0433602148867667 0.0183730787365292 931446009.83993 -247256358.034289 15.8736231431915
     260  0.018373079 -2.472565e+08            0 -2.4725636e+08    15.873623 
2.58 0.584540695274178 2858.86952954916 5715.00563283068 0.000987330917267181 0.0433493315318835 0.0183802138132606 931446009.83993 -247256357.938508 15.7601877702316
     261  0.018380214 -2.472565e+08            0 -2.4725636e+08    15.760188 
2.59 0.583711747729009 2858.86953944119 5715.00563283082 0.000991075252447224 0.0433384085784847 0.0183893419457503 931446009.83993 -247256357.812601 15.6318914609909
     262  0.018389342 -2.472565e+08            0 -2.4725636e+08    15.631891 
2.6 0.58278803079083 2858.86954937066 5715.00563283107 0.000994818642306212 0.0433274457385506 0.0184004404194708 931446009.83993 -247256357.651643 15.4888209407204
     263   0.01840044 -2.472565e+08            0 -2.4725636e+08    15.488821 
2.61 0.581770456056737 2858.86955933757 5715.00563283121 0.000998561083410331 0.0433164432864985 0.0184143993415807 931446009.83993 -247256357.452206 15.3310998856641
     264  0.018414399 -2.472565e+08            0 -2.4725636e+08      15.3311 
2.62 0.58066002775014 2858.86956934189 5715.00563283135 0.00100230257233513 0.0433054011647966 0.0184316438844256 931446009.83993 -247256357.211352 15.1588990860294
     265  0.018431644 -2.472565e+08            0 -2.4725636e+08    15.158899 
2.63 0.579457841729713 2858.86957938362 5715.0056328316 0.00100604310565138 0.0432943193198992 0.0184516406199094 931446009.83993 -247256356.924839 14.9724167019789
     266  0.018451641 -2.472565e+08            0 -2.4725636e+08    14.972417 
2.64 0.578165084407917 2858.86958946275 5715.00563283175 0.00100978267994412 0.0432831981365355 0.0184745493377149 931446009.83993 -247256356.588888 14.7718802304735
     267  0.018474549 -2.472565e+08            0 -2.4725636e+08     14.77188 
2.65 0.576783031580152 2858.86959957927 5715.00563283189 0.00101352129182613 0.0432720378711592 0.0185012634648856 931446009.83993 -247256356.201811 14.5575259969668
     268  0.018501263 -2.472565e+08            0 -2.4725636e+08    14.557526 
2.66 0.575313047165701 2858.86960973317 5715.00563283214 0.0010172589379264 0.0432608386437702 0.018531522277273 931446009.83993 -247256355.761611 14.3295589780387
     269  0.018531522 -2.472565e+08            0 -2.4725636e+08    14.329559 
2.67 0.57375658186171 2858.86961992445 5715.00563283228 0.00102099561489529 0.043249600828221 0.0185644901103716 931446009.83993 -247256355.264464 14.0881667118282
     270   0.01856449 -2.472565e+08            0 -2.4725636e+08    14.088167 
2.68 0.572115171711517 2858.86963015309 5715.00563283242 0.00102473131938961 0.0432383242000946 0.018600891617084 931446009.83993 -247256354.70802 13.8335627807013
     271  0.018600892 -2.472565e+08            0 -2.4725635e+08    13.833563 
2.69 0.570390436588772 2858.86964041908 5715.00563283267 0.00102846604805143 0.0432270086430365 0.0186417594010213 931446009.83993 -247256354.091907 13.5659824640191
     272  0.018641759 -2.472565e+08            0 -2.4725635e+08    13.565982 
2.7 0.56858407859881 2858.86965072241 5715.00563283282 0.00103219979752066 0.0432156542229098 0.0186862457875454 931446009.83993 -247256353.413521 13.2856643360447
     273  0.018686246 -2.472565e+08            0 -2.4725635e+08    13.285664 
2.71 0.566697880398884 2858.86966106307 5715.00563283298 0.00103593256443402 0.0432042608003887 0.0187336619006554 931446009.83993 -247256352.668837 12.9928978588792
     274  0.018733662 -2.472565e+08            0 -2.4725635e+08    12.992898 
2.72 0.564733703438894 2858.86967144106 5715.00563283321 0.00103966434538834 0.0431928275909757 0.0187853866090011 931446009.83993 -247256351.856898 12.6880398526121
     275  0.018785387 -2.472565e+08            0 -2.4725635e+08     12.68804 
2.73 0.562693486124361 2858.86968185636 5715.00563283336 0.0010433951369534 0.0431813547530273 0.0188419670894332 931446009.83993 -247256350.978208 12.3714111592306
     276  0.018841967 -2.472565e+08            0 -2.4725635e+08    12.371411 
2.74 0.560579241903457 2858.86969230896 5715.00563283352 0.00104712493570645 0.0431698423009398 0.0189018485498968 931446009.83993 -247256350.029936 12.0432682641298
     277  0.018901849 -2.472565e+08            0 -2.4725635e+08    12.043268 
2.75 0.55839305727997 2858.86970279886 5715.00563283384 0.00105085373820576 0.0431582897812467 0.0189651161196612 931446009.83993 -247256349.009657 11.7039111713605
     278  0.018965116 -2.472565e+08            0 -2.4725635e+08    11.703911 
2.76 0.556137089754184 2858.86971332604 5715.00563283392 0.00105458154100502 0.0431466975415125 0.0190337789513884 931446009.83993 -247256347.920005 11.3536817900008
     279  0.019033779 -2.472565e+08            0 -2.4725635e+08    11.353682 
2.77 0.553813565693681 2858.86972389049 5715.00563283421 0.00105830834070516 0.0431350663268334 0.0191072683548385 931446009.83993 -247256346.76272 10.9928641019069
     280  0.019107268 -2.472565e+08            0 -2.4725635e+08    10.992864 
2.78 0.551424778136184 2858.8697344922 5715.00563283438 0.00106203413396997 0.0431233968489575 0.0191834939478771 931446009.83993 -247256345.534948 10.6217540145795
     281  0.019183494 -2.4725649e+08            0 -2.4725635e+08    10.621754 
2.79 0.548973084526613 2858.86974513117 5715.00563283446 0.00106575891751388 0.0431116895671071 0.0192638751028272 931446009.83993 -247256344.237241 10.2407968704723
     282  0.019263875 -2.4725649e+08            0 -2.4725634e+08    10.240797 
2.8 0.546460904390563 2858.86975580738 5715.00563283478 0.00106948268807745 0.0430999446277366 0.0193505851557089 931446009.83993 -247256342.874626 9.85046735795575
     283  0.019350585 -2.4725649e+08            0 -2.4725634e+08    9.8504674 
2.81 0.543890716946529 2858.86976652082 5715.00563283495 0.00107320544242803 0.0430881625049661 0.0194414943978483 931446009.83993 -247256341.4474 9.45109581800161
     284  0.019441494 -2.4725649e+08            0 -2.4725634e+08    9.4510958 
2.82 0.541265058659215 2858.86977727149 5715.00563283509 0.00107692717732625 0.0430763425682725 0.0195349359098959 931446009.83993 -247256339.951626 9.04301852097295
     285  0.019534936 -2.4725649e+08            0 -2.4725634e+08    9.0430185 
2.83 0.538586520736353 2858.86978805937 5715.00563283535 0.00108064788950483 0.0430644848023663 0.0196340930802476 931446009.83993 -247256338.390544 8.62671681578339
     286  0.019634093 -2.4725649e+08            0 -2.4725634e+08    8.6267168 
2.84 0.535857746571487 2858.86979888445 5715.00563283549 0.00108436757563332 0.0430525877603926 0.0197400315604838 931446009.83993 -247256336.770153 8.20259780702775
     287  0.019740032 -2.4725649e+08            0 -2.4725634e+08    8.2025978 
2.85 0.53308142913527 2858.86980974672 5715.00563283566 0.00108808623229062 0.0430406507898781 0.0198487187159714 931446009.83993 -247256335.088014 7.77092697915159
     288  0.019848719 -2.4725649e+08            0 -2.4725634e+08     7.770927 
2.86 0.530260308317823 2858.86982064617 5715.00563283598 0.00109180385599156 0.0430286730603776 0.0199601235318916 931446009.83993 -247256333.341599 7.33214602516286
     289  0.019960124 -2.4725649e+08            0 -2.4725633e+08     7.332146 
2.87 0.527397168224794 2858.8698315828 5715.00563283606 0.00109552044323372 0.043016655002933 0.0200788276246981 931446009.83993 -247256331.540104 6.88688826233718
     290  0.020078828 -2.4725649e+08            0 -2.4725633e+08    6.8868883 
2.88 0.524494834429784 2858.86984255658 5715.00563283638 0.00109923599051636 0.0430045962253092 0.0202029704258454 931446009.83993 -247256329.689919 6.43559431959281
     291   0.02020297 -2.4725649e+08            0 -2.4725633e+08    6.4355943 
2.89 0.521556171185845 2858.86985356752 5715.00563283655 0.00110295049435873 0.0429924975825828 0.0203269463565427 931446009.83993 -247256327.785915 5.97855526954114
     292  0.020326946 -2.4725649e+08            0 -2.4725633e+08    5.9785553 
2.9 0.518584078598811 2858.86986461559 5715.00563283669 0.00110666395135016 0.0429803598422437 0.0204537559130328 931446009.83993 -247256325.830757 5.51631274417749
     293  0.020453756 -2.4725648e+08            0 -2.4725633e+08    5.5163127 
2.91 0.515581489765239 2858.8698757008 5715.00563283695 0.00111037635817699 0.0429681844822562 0.0205881349129982 931446009.83993 -247256323.838638 5.04947161115503
     294  0.020588135 -2.4725648e+08            0 -2.4725632e+08    5.0494716 
2.92 0.512551367877802 2858.86988682312 5715.0056328371 0.00111408771161268 0.0429559720424854 0.0207241967349269 931446009.83993 -247256321.811283 4.57829085086537
     295  0.020724197 -2.4725648e+08            0 -2.4725632e+08    4.5782909 
2.93 0.50949670330097 2858.86989798255 5715.00563283743 0.00111779800848842 0.0429437233188661 0.0208573689240208 931446009.83993 -247256319.740518 4.10306180362624
     296  0.020857369 -2.4725648e+08            0 -2.4725632e+08    4.1030618 
2.94 0.506420510619889 2858.86990917908 5715.00563283761 0.00112150724568079 0.0429314385665684 0.0209952474449533 931446009.83993 -247256317.635289 3.62451185150072
     297  0.020995247 -2.4725648e+08            0 -2.4725632e+08    3.6245119 
2.95 0.503325825665339 2858.8699204127 5715.00563283776 0.00112521542007729 0.042919117783521 0.0211401064479504 931446009.83993 -247256315.510933 3.14326518294467
     298  0.021140106 -2.4725648e+08            0 -2.4725632e+08    3.1432652 
2.96 0.500215702517747 2858.86993168339 5715.00563283801 0.00112892252851067 0.0429067597039191 0.0212814454884049 931446009.83993 -247256313.360273 2.65952632114434
     299  0.021281445 -2.4725648e+08            0 -2.4725631e+08    2.6595263 
2.97 0.497093210493167 2858.86994299115 5715.00563283816 0.00113262856774991 0.0428943641170547 0.0214190602811279 931446009.83993 -247256311.175969 2.17375625314035
[...]
     420  0.064730383 -2.4725566e+08            0 -2.4725516e+08    11.369166 
4.18 0.541265058659213 2858.87158127722 5715.00563287284 0.00157219350826327 0.0411228047938685 0.130895939463755 931446009.83993 -247255153.496909 10.2601516212141
     421   0.13089594 -2.4725617e+08            0 -2.4725515e+08    10.260152 
4.19 0.543890716946527 2858.87159701692 5715.00563287332 0.00157574524788162 0.0411060198626224 0.123532814279364 931446009.83993 -247255124.257694 10.6993869169001
     422   0.12353281 -2.4725608e+08            0 -2.4725512e+08    10.699387 
4.2 0.546460904390561 2858.87161279213 5715.00563287355 0.00157929553614562 0.0410892034677001 0.0590226623110514 931446009.83993 -247254980.037317 13.2933835266236
     423  0.059022662 -2.4725544e+08            0 -2.4725498e+08    13.293384 
4.21 0.548973084526611 2858.87162860283 5715.00563287394 0.00158284437032322 0.0410723552843849 0.0690908379808987 931446009.83993 -247254859.240425 14.1833368825294
     424  0.069090838 -2.472554e+08            0 -2.4725486e+08    14.183337 
4.22 0.551424778136183 2858.87164444902 5715.00563287441 0.0015863917476884 0.0410554757774793 0.150218122191715 931446009.83993 -247254825.868591 12.4080726451434
     425   0.15021812 -2.4725599e+08            0 -2.4725483e+08    12.408073 
4.23 0.553813565693679 2858.87166033067 5715.0056328748 0.00158993766553882 0.0410385650307833 0.15915355109472 931446009.83993 -247254826.772193 12.6365865407973
     426   0.15915355 -2.4725606e+08            0 -2.4725483e+08    12.636587 
4.24 0.556137089754183 2858.87167624777 5715.00563287511 0.00159348212114713 0.0410216223806906 0.080341541957589 931446009.83993 -247254663.342567 15.7026899517583
     427  0.080341542 -2.4725529e+08            0 -2.4725466e+08     15.70269 
4.25 0.558393057279969 2858.87169220031 5715.00563287551 0.00159702511174772 0.0410046476057636 0.0702573762629374 931446009.83993 -247254493.162123 17.1610173519883
     428  0.070257376 -2.4725504e+08            0 -2.4725449e+08    17.161017 
4.26 0.560579241903455 2858.87170818827 5715.00563287591 0.00160056663456198 0.0409876406255276 0.164511472233422 931446009.83993 -247254426.368728 15.0411931975287
     429   0.16451147 -2.472557e+08            0 -2.4725443e+08    15.041193 
4.27 0.56269348612436 2858.87172421164 5715.00563287622 0.00160410668677414 0.0409706006614038 0.203593549786848 931446009.83993 -247254485.541443 14.5097403061253
     430   0.20359355 -2.4725607e+08            0 -2.4725449e+08     14.50974 
4.28 0.564733703438893 2858.87174027041 5715.00563287662 0.00160764526550736 0.0409535270769942 0.116537891505535 931446009.83993 -247254304.051159 17.7636806608693
     431   0.11653789 -2.4725521e+08            0 -2.472543e+08    17.763681 
4.29 0.566697880398883 2858.87175636455 5715.0056328771 0.00161118236787494 0.0409364202812358 0.0708296468187222 931446009.83993 -247254063.106243 20.2113990567613
     432  0.070829647 -2.4725461e+08            0 -2.4725406e+08    20.211399 
4.3 0.568584078598808 2858.87177249405 5715.0056328775 0.00161471799098112 0.0409192796544254 0.171456294929556 931446009.83993 -247253951.925654 18.3286232528981
     433   0.17145629 -2.4725528e+08            0 -2.4725395e+08    18.328623 
4.31 0.57039043658877 2858.87178865891 5715.00563287781 0.00161825213193212 0.0409021058633569 0.25541441635759 931446009.83993 -247254042.40831 16.478189996531
     434   0.25541442 -2.4725602e+08            0 -2.4725404e+08     16.47819 
4.32 0.572115171711515 2858.8718048591 5715.00563287821 0.00162178478786551 0.0408848989660688 0.174460838486838 931446009.83993 -247253837.003098 19.5445361498459
     435   0.17446084 -2.4725519e+08            0 -2.4725384e+08    19.544536 
4.33 0.573756581861709 2858.8718210946 5715.00563287869 0.00162531595590945 0.0408676586869012 0.0785892903654385 931446009.83993 -247253498.559762 23.9314858846792
     436   0.07858929 -2.4725411e+08            0 -2.472535e+08    23.931486 
4.34 0.5753130471657 2858.87183736541 5715.00563287908 0.00162884563320796 0.040850385669214 0.179657377912419 931446009.83993 -247253337.724793 22.1363772753361
     437   0.17965738 -2.4725473e+08            0 -2.4725334e+08    22.136377 
4.35 0.576783031580151 2858.87185367152 5715.0056328794 0.00163237381696418 0.0408330806377286 0.317062518920981 931446009.83993 -247253380.777884 18.7803089631744
     438   0.31706252 -2.4725584e+08            0 -2.4725338e+08    18.780309 
4.36 0.578165084407916 2858.87187001289 5715.0056328798 0.00163590050439891 0.0408157432768613 0.255686560131837 931446009.83993 -247253142.022027 21.5300528928594
     439   0.25568656 -2.4725513e+08            0 -2.4725314e+08    21.530053 
4.37 0.579457841729712 2858.87188638953 5715.0056328803 0.00163942569274826 0.0407983742565722 0.101136604445965 931446009.83993 -247252670.391908 28.936912191109
     440    0.1011366 -2.4725346e+08            0 -2.4725267e+08    28.936912 
4.38 0.580660027750139 2858.87190280141 5715.0056328807 0.00164294937927127 0.0407809734377039 0.213369969091436 931446009.83993 -247252465.569306 26.2386028401844
     441   0.21336997 -2.4725412e+08            0 -2.4725247e+08    26.238603 
4.39 0.581770456056736 2858.87191924851 5715.00563288101 0.00164647156122824 0.0407635409890433 0.400732236186779 931446009.83993 -247252406.776689 21.7456780269371
     442   0.40073224 -2.4725552e+08            0 -2.4725241e+08    21.745678 
4.4 0.58278803079083 2858.87193573084 5715.00563288142 0.00164999223587546 0.0407460766482449 0.343970870370604 931446009.83993 -247252126.711354 24.7829451779852
     443   0.34397087 -2.472548e+08            0 -2.4725213e+08    24.782945 
4.41 0.583711747729009 2858.87195224836 5715.00563288191 0.00165351140044155 0.0407285800375976 0.132529137760496 931446009.83993 -247251400.810491 35.5844562372786
     444   0.13252914 -2.4725243e+08            0 -2.472514e+08    35.584456 
4.42 0.584540695274178 2858.87196880107 5715.00563288231 0.00165702905210857 0.0407110504568197 0.315732060151628 931446009.83993 -247251188.544653 30.7100306678642
     445   0.31573206 -2.4725364e+08            0 -2.4725119e+08    30.710031 
4.43 0.585274055355189 2858.87198538894 5715.00563288264 0.00166054518803964 0.0406934881672792 0.545233347221719 931446009.83993 -247251026.511396 24.97652093877
     446   0.54523335 -2.4725526e+08            0 -2.4725103e+08    24.976521 
4.44 0.585911104234183 2858.87200201197 5715.00563288311 0.00166405980538961 0.0406758927165868 0.409611764435161 931446009.83993 -247250694.278237 30.6268944205119
     447   0.40961176 -2.4725387e+08            0 -2.4725069e+08    30.626894 
4.45 0.586451213220828 2858.87201867014 5715.00563288352 0.00166757290126883 0.0406582635265684 0.140607751852591 931446009.83993 -247249316.865568 43.4817056545887
     448   0.14060775 -2.4725041e+08            0 -2.4724932e+08    43.481706 
4.46 0.586893849292762 2858.87203536343 5715.00563288401 0.00167108447278024 0.0406406010042912 0.528077258633065 931446009.83993 -247249186.752978 35.3816406041128
     449   0.52807726 -2.4725328e+08            0 -2.4724919e+08    35.381641 
4.47 0.587238575621622 2858.87205209183 5715.00563288443 0.00167459451703638 0.0406229049641884 0.828482469427907 931446009.83993 -247248979.035455 27.2742143571761
     450   0.82848247 -2.4725541e+08            0 -2.4724898e+08    27.274214 
4.48 0.587485052004142 2858.87206885532 5715.00563288475 0.00167810303116007 0.0406051758307894 0.409012985931973 931446009.83993 -247248826.913486 41.5796351400459
     451   0.40901299 -2.47252e+08            0 -2.4724883e+08    41.579635 
4.49 0.587633035197888 2858.87208565388 5715.00563288516 0.00168161001233081 0.0405874144912418 0.101913716764319 931446009.83993 -247246913.213429 51.1184049103195
     452   0.10191372 -2.472477e+08            0 -2.4724691e+08    51.118405 
4.5 0.587682379161314 2858.87210248752 5715.00563288565 0.00168511545777764 0.0405696212050604 0.812296083964912 931446009.83993 -247246966.112929 38.1919622305229
     453   0.81229608 -2.4725327e+08            0 -2.4724697e+08    38.191962 
4.51 0.587633035197888 2858.87211935619 5715.00563288615 0.00168861936475689 0.0405517963451608 1.15061669714929 931446009.83993 -247246905.257913 27.6688859540468
     454    1.1506167 -2.4725583e+08            0 -2.4724691e+08    27.668886 
4.52 0.587485052004142 2858.8721362599 5715.00563288657 0.00169212173056083 0.0405339403703369 0.369997643645243 931446009.83993 -247246189.883109 51.0757801800888
     455   0.36999764 -2.4724906e+08            0 -2.4724619e+08     51.07578 
4.53 0.587238575621623 2858.87215319863 5715.00563288689 0.00169562255254856 0.0405160543691118 0.170239014994253 931446009.83993 -247244300.684586 54.4750735128556
     456   0.17023901 -2.4724562e+08            0 -2.472443e+08    54.475074 
4.54 0.586893849292762 2858.87217017236 5715.00563288738 0.00169912182810686 0.0404981378935178 1.06002754662278 931446009.83993 -247244839.276313 41.7925858184659
     457    1.0600275 -2.4725306e+08            0 -2.4724484e+08    41.792586 
4.55 0.586451213220828 2858.87218718107 5715.00563288779 0.00170261955461125 0.0404801911316934 1.29334588179131 931446009.83993 -247244743.688876 35.7315771389941
     458    1.2933459 -2.4725478e+08            0 -2.4724474e+08    35.731577 
4.56 0.585911104234184 2858.87220422475 5715.00563288831 0.00170611572946234 0.0404622144752875 0.411532685449332 931446009.83993 -247242762.604028 50.9332352408068
     459   0.41153269 -2.4724596e+08            0 -2.4724276e+08    50.933235 
4.57 0.58527405535519 2858.87222130338 5715.00563288871 0.0017096103500686 0.0404442077152848 0.454649296676647 931446009.83993 -247240573.532622 58.8192676250056
     460    0.4546493 -2.472441e+08            0 -2.4724057e+08    58.819268 
4.58 0.584540695274178 2858.87223841695 5715.00563288921 0.0017131034138401 0.0404261710976439 1.50726270453206 931446009.83993 -247241251.655072 44.9374282933068
     461    1.5072627 -2.4725295e+08            0 -2.4724125e+08    44.937428 
4.59 0.583711747729009 2858.87225556545 5715.00563288955 0.00171659491819526 0.0404081045698296 1.45493810040537 931446009.83993 -247240971.268488 46.8188787229042
     462    1.4549381 -2.4725226e+08            0 -2.4724097e+08    46.818879 
4.6 0.58278803079083 2858.87227274885 5715.00563288996 0.00172008486049955 0.0403900069577573 0.296988203506499 931446009.83993 -247238094.735867 72.4690881447271
     463    0.2969882 -2.472404e+08            0 -2.4723809e+08    72.469088 
4.61 0.581770456056737 2858.87228996715 5715.00563289046 0.00172357323806221 0.0403718781348791 0.889461426530742 931446009.83993 -247235752.884 66.9827506254468
     464   0.88946143 -2.4724265e+08            0 -2.4723575e+08    66.982751 
4.62 0.58066002775014 2858.87230722032 5715.00563289097 0.0017270600481874 0.0403537181092362 2.47689243750441 931446009.83993 -247235908.151708 41.7449643772918
     465    2.4768924 -2.4725512e+08            0 -2.4723591e+08    41.744964 
4.63 0.579457841729713 2858.87232450835 5715.00563289145 0.00173054528812171 0.0403355255401273 1.58253869012477 931446009.83993 -247235534.870956 57.4443057085161
     466    1.5825387 -2.4724781e+08            0 -2.4723553e+08    57.444306 
4.64 0.578165084407917 2858.87234183122 5715.00563289188 0.00173402895506584 0.0403173007061995 0.538833094779683 931446009.83993 -247224374.751978 132.846080085809
     467   0.53883309 -2.4722856e+08            0 -2.4722437e+08    132.84608 
4.65 0.576783031580152 2858.87235918893 5715.00563289223 0.0017375110462179 0.0402990432683977 2.94838350561708 931446009.83993 -247225888.481023 73.7159162253777
     468    2.9483835 -2.4724876e+08            0 -2.4722589e+08    73.715916 
4.66 0.575313047165702 2858.87237658144 5715.00563289273 0.00174099155875669 0.0402807531188972 3.39536326823906 931446009.83993 -247222902.036206 76.8716659319743
     469    3.3953633 -2.4724924e+08            0 -2.472229e+08    76.871666 
4.67 0.57375658186171 2858.87239400876 5715.00563289316 0.00174447048988686 0.0402624309639169 1.11187428004213 931446009.83993 -247208562.542219 198.292285953872
     470    1.1118743 -2.4721719e+08            0 -2.4720856e+08    198.29229 
4.68 0.572115171711517 2858.87241147085 5715.00563289366 0.00174794783684479 0.0402440768319493 2.84089977807959 931446009.83993 -247218630.637078 87.2414258752897
     471    2.8408998 -2.4724067e+08            0 -2.4721863e+08    87.241426 
4.69 0.570390436588772 2858.87242896772 5715.00563289418 0.00175142359690328 0.0402256915377859 4.34658190975766 931446009.83993 -247212190.571616 82.0454436492013
     472    4.3465819 -2.4724591e+08            0 -2.4721219e+08    82.045444 
4.7 0.56858407859881 2858.87244649932 5715.00563289468 0.00175489776741245 0.0402072760562127 1.95263506805762 931446009.83993 -247215996.499029 122.921662933288
     473    1.9526351 -2.4723115e+08            0 -2.47216e+08    122.92166 
4.71 0.566697880398884 2858.87246406567 5715.00563289511 0.00175837034574669 0.040188829975305 3.03931382507712 931446009.83993 -247183176.894029 247.092321455633
     474    3.0393138 -2.4720676e+08            0 -2.4718318e+08    247.09232 
4.72 0.564733703438894 2858.87248166673 5715.00563289561 0.00176184132927581 0.0401703535995993 6.33536786401514 931446009.83993 -247186942.873989 147.63715683684
     475    6.3353679 -2.4723609e+08            0 -2.4718694e+08    147.63716 
4.73 0.562693486124361 2858.8724993025 5715.00563289596 0.00176531071537997 0.0401518468655249 5.32220231647553 931446009.83993 -247192424.094576 135.909023206341
     476    5.3222023 -2.4723371e+08            0 -2.4719242e+08    135.90902 
4.74 0.560579241903457 2858.87251697295 5715.00563289646 0.00176877850144209 0.040133309899905 5.00551564687224 931446009.83993 -247149735.360956 345.671316974615
     477    5.0055156 -2.4718857e+08            0 -2.4714974e+08    345.67132 
4.75 0.558393057279971 2858.87253467807 5715.0056328969 0.00177224468481885 0.0401147419681464 17.421485468497 931446009.83993 -247079872.704582 324.468861801389
     478    17.421485 -2.4721503e+08            0 -2.4707987e+08    324.46886 
4.76 0.556137089754185 2858.87255241784 5715.0056328974 0.00177570926282684 0.0400961428770301 2069121.54128302 931446009.83993 15805855300.9203 18408869.0857708
     479    2069121.5 -2.4679056e+08            0 1.5805855e+10     18408869 
4.77 0.553813565693681 2858.87257019225 5715.00563289792 0.00177917223273835 0.0400775117944573 1713092776.8213 931446009.83993 13290259693820.3 15240631539.1751
     480 1.7130928e+09 -2.4602098e+08            0 1.329026e+13 1.5240632e+10 
4.78 0.551424778136185 2858.87258800129 5715.00563289844 0.00178263359177055 0.0400588482758456 6831281777.78561 931446009.83993 52998161334108.1 60774898701.1501
     481 6.8312818e+09 -2.4642029e+08            0 5.2998161e+13 6.0774899e+10 
4.79 0.548973084526614 2858.87260584492 5715.00563289895 0.00178609333714156 0.0400401527883104 6929103733.44635 931446009.83993 53757083919341.6 61645178465.0157
     482 6.9291037e+09 -2.4552239e+08            0 5.3757084e+13 6.1645178e+10 
4.8 0.546460904390564 2858.87262372315 5715.00563289939 0.00178955146609231 0.0400214253919881 8339525509.16202 931446009.83993 64699409750609.7 74193078159.5512
     483 8.3395255e+09 -2.4512968e+08            0 6.469941e+13 7.4193078e+10 
4.81 0.543890716946529 2858.87264163595 5715.00563289991 0.00179300797590655 0.0400026670191914 11800549639.3545 931446009.83993 91550704257106.6 104984280189.246
     484 1.180055e+10 -2.4648046e+08            0 9.1550704e+13 1.0498428e+11 
4.82 0.553233855049862 2858.87265958331 5715.00563290041 0.00179646286396301 0.0399838789357002 822916876.424802 931446009.83993 6384106794883.78 7321135013.43823
ERROR: Lost atoms: original 60020000 current 60016072 (../thermo.cpp:438)
Last command: run $R
srun: error: nid01286: tasks 280-319: Exited with exit code 1
srun: launch/slurm: _step_signal: Terminating StepId=827008.0
srun: error: nid01330: tasks 2040-2079: Exited with exit code 1
srun: error: nid01285: tasks 240-279: Exited with exit code 1
srun: error: nid01335: tasks 2240-2279: Exited with exit code 1
srun: error: nid01294: tasks 600-639: Exited with exit code 1
srun: error: nid01283: tasks 160-199: Exited with exit code 1
srun: error: nid01329: tasks 2000-2039: Exited with exit code 1
srun: error: nid01292: tasks 520-559: Exited with exit code 1
srun: error: nid01284: tasks 200-239: Exited with exit code 1
srun: error: nid01300: tasks 840-879: Exited with exit code 1
srun: error: nid01337: tasks 2320-2359: Exited with exit code 1
srun: error: nid01287: tasks 320-359: Exited with exit code 1
srun: error: nid01316: tasks 1480-1519: Exited with exit code 1
srun: error: nid01326: tasks 1880-1919: Exited with exit code 1
srun: error: nid01332: tasks 2120-2159: Exited with exit code 1
srun: error: nid01298: tasks 760-799: Exited with exit code 1
srun: error: nid01299: tasks 800-839: Exited with exit code 1
srun: error: nid01295: tasks 640-679: Exited with exit code 1
srun: error: nid01321: tasks 1680-1719: Exited with exit code 1
srun: error: nid01323: tasks 1760-1799: Exited with exit code 1
srun: error: nid01310: tasks 1240-1279: Exited with exit code 1
srun: error: nid01297: tasks 720-759: Exited with exit code 1
srun: error: nid01302: tasks 920-959: Exited with exit code 1
srun: error: nid01331: tasks 2080-2119: Exited with exit code 1
srun: error: nid01296: tasks 680-719: Exited with exit code 1
srun: error: nid01334: tasks 2200-2239: Exited with exit code 1
srun: error: nid01309: tasks 1200-1239: Exited with exit code 1
srun: error: nid01282: tasks 120-159: Exited with exit code 1
srun: error: nid01342: tasks 2520-2559: Exited with exit code 1
srun: error: nid01315: tasks 1440-1479: Exited with exit code 1
srun: error: nid01288: tasks 360-399: Exited with exit code 1
srun: error: nid01336: tasks 2280-2319: Exited with exit code 1
srun: error: nid01341: tasks 2480-2519: Exited with exit code 1
srun: error: nid01333: tasks 2160-2199: Exited with exit code 1
srun: error: nid01325: tasks 1840-1879: Exited with exit code 1
srun: error: nid01328: tasks 1960-1999: Exited with exit code 1
srun: error: nid01320: tasks 1640-1679: Exited with exit code 1
srun: error: nid01327: tasks 1920-1959: Exited with exit code 1
srun: error: nid01281: tasks 80-119: Exited with exit code 1
srun: error: nid01318: tasks 1560-1599: Exited with exit code 1
srun: error: nid01314: tasks 1400-1439: Exited with exit code 1
srun: error: nid01306: tasks 1080-1119: Exited with exit code 1
srun: error: nid01322: tasks 1720-1759: Exited with exit code 1
srun: error: nid01311: tasks 1280-1319: Exited with exit code 1
srun: error: nid01291: tasks 480-519: Exited with exit code 1
srun: error: nid01307: tasks 1120-1159: Exited with exit code 1
srun: error: nid01280: tasks 40-79: Exited with exit code 1
srun: error: nid01304: tasks 1000-1039: Exited with exit code 1
srun: error: nid01339: tasks 2400-2439: Exited with exit code 1
srun: error: nid01340: tasks 2440-2479: Exited with exit code 1
srun: error: nid01312: tasks 1320-1359: Exited with exit code 1
srun: error: nid01319: tasks 1600-1639: Exited with exit code 1
srun: error: nid01289: tasks 400-439: Exited with exit code 1
srun: error: nid01293: tasks 560-599: Exited with exit code 1
srun: error: nid01338: tasks 2360-2399: Exited with exit code 1
srun: error: nid01324: tasks 1800-1839: Exited with exit code 1
srun: error: nid01303: tasks 960-999: Exited with exit code 1
srun: error: nid01313: tasks 1360-1399: Exited with exit code 1
srun: error: nid01301: tasks 880-919: Exited with exit code 1
srun: error: nid01317: tasks 1520-1559: Exited with exit code 1
srun: error: nid01290: tasks 440-479: Exited with exit code 1
srun: error: nid01308: tasks 1160-1199: Exited with exit code 1
srun: error: nid01305: tasks 1040-1079: Exited with exit code 1
srun: error: nid01279: tasks 0-39: Exited with exit code 1
