LAMMPS (3 Mar 2020)
Reading data file ...
  orthogonal box = (-1427.97 -9.74881e-06 -9.74881e-06) to (9996.79 285.532 285.532)
  160 by 4 by 4 MPI processor grid
  reading atoms ...
  60020000 atoms
  reading velocities ...
  60020000 velocities
  read_data CPU = 84.2954 secs
20000 atoms in group source
20000 atoms in group detector
10000 atoms in group edge
10000 atoms in group edge_buf
19980000 atoms in group buffer
WARNING: Using 'neigh_modify every 1 delay 0 check yes' setting during minimization (../min.cpp:190)
Neighbor list info ...
  update every 1 steps, delay 0 steps, check yes
  max neighbors/atom: 2000, page size: 100000
  master list distance cutoff = 7.6
  ghost atom cutoff = 7.6
  binsize = 3.8, bins = 3007 76 76
  1 neighbor lists, perpetual/occasional/extra = 1 0 0
  (1) pair eam/alloy, perpetual
      attributes: half, newton on
      pair build: half/bin/atomonly/newton
      stencil: half/bin/3d/newton
      bin: standard
Setting up cg style minimization ...
  Unit style    : metal
  Current step  : 0
Per MPI rank memory allocation (min/avg/max) = 8.251 | 22.21 | 27.31 Mbytes
Step Temp E_pair E_mol TotEng Press 
       0            0 -2.4725663e+08            0 -2.4725663e+08   -0.1958036 
       1            0 -2.4725663e+08            0 -2.4725663e+08  -0.19493143 
Loop time of 0.237085 on 2560 procs for 1 steps with 60020000 atoms

99.8% CPU use with 2560 MPI tasks x no OpenMP threads

Minimization stats:
  Stopping criterion = energy tolerance
  Energy initial, next-to-last, final = 
        -247256632.196     -247256632.196     -247256632.205
  Force two-norm initial, final = 0.292999 0.400923
  Force max component initial, final = 0.0458421 0.0763936
  Final line search alpha, max atom move = 1 0.0763936
  Iterations, force evaluations = 1 2

MPI task timing breakdown:
Section |  min time  |  avg time  |  max time  |%varavg| %total
---------------------------------------------------------------
Pair    | 4.7684e-07 | 0.14628    | 0.22729    |  21.6 | 61.70
Neigh   | 0          | 0          | 0          |   0.0 |  0.00
Comm    | 2.3842e-07 | 0.0090947  | 0.11433    |  14.1 |  3.84
Output  | 0          | 0          | 0          |   0.0 |  0.00
Modify  | 0          | 0          | 0          |   0.0 |  0.00
Other   |            | 0.08171    |            |       | 34.46

Nlocal:    23445.3 ave 32200 max 0 min
Histogram: 640 0 0 0 0 0 0 0 0 1920
Nghost:    18785.3 ave 25737 max 0 min
Histogram: 608 32 0 0 0 0 0 16 16 1888
Neighs:    1.96812e+06 ave 2.71205e+06 max 0 min
Histogram: 640 0 0 0 0 0 0 0 1 1919

Total # of neighbors = 5.0384e+09
Ave neighs/atom = 83.9453
Neighbor list builds = 0
Dangerous builds = 0
WARNING: Using 'neigh_modify every 1 delay 0 check yes' setting during minimization (../min.cpp:190)
Setting up cg style minimization ...
  Unit style    : metal
  Current step  : 1
WARNING: Energy due to 3 extra global DOFs will be included in minimizer energies
Per MPI rank memory allocation (min/avg/max) = 8.251 | 22.21 | 27.31 Mbytes
Step Temp E_pair E_mol TotEng Press Volume 
       1            0 -2.4725663e+08            0 -2.4725663e+08  -0.19493143 9.3144656e+08 
       2            0 -2.4725663e+08            0 -2.4725663e+08   0.59533368 9.3144601e+08 
Loop time of 0.379671 on 2560 procs for 1 steps with 60020000 atoms

99.9% CPU use with 2560 MPI tasks x no OpenMP threads

Minimization stats:
  Stopping criterion = energy tolerance
  Energy initial, next-to-last, final = 
        -247256632.205     -247256632.205     -247256632.205
  Force two-norm initial, final = 673.813 621.25
  Force max component initial, final = 639.631 412.671
  Final line search alpha, max atom move = 1.5634e-05 0.0064517
  Iterations, force evaluations = 1 2

MPI task timing breakdown:
Section |  min time  |  avg time  |  max time  |%varavg| %total
---------------------------------------------------------------
Pair    | 4.7684e-07 | 0.15378    | 0.23106    |  22.0 | 40.50
Neigh   | 1.1444e-05 | 0.09827    | 0.14284    |  18.2 | 25.88
Comm    | 4.8161e-05 | 0.011833   | 0.11742    |  12.8 |  3.12
ERROR on proc 2298: Substitution for illegal variable M (../input.cpp:553)
Last command: shell bash $MYWORK/common_files/delete_restart.sh
Output  | 0          | 0          | 0          |   0.0 |  0.00
Modify  | 0          | 0          | 0          |   0.0 |  0.00
Other   |            | 0.1158     |            |       | 30.50

Nlocal:    23445.3 ave 32200 max 0 min
Histogram: 640 0 0 0 0 0 0 0 0 1920
Nghost:    18785.3 ave 25737 max 0 min
Histogram: 608 32 0 0 0 0 0 16 16 1888
Neighs:    1.96812e+06 ave 2.71205e+06 max 0 min
Histogram: 640 0 0 0 0 0 0 0 1 1919

Total # of neighbors = 5.0384e+09
Ave neighs/atom = 83.9453
Neighbor list builds = 2
Dangerous builds = 2
WARNING: Using 'neigh_modify every 1 delay 0 check yes' setting during minimization (../min.cpp:190)
Setting up cg style minimization ...
  Unit style    : metal
  Current step  : 2
Per MPI rank memory allocation (min/avg/max) = 8.253 | 22.21 | 27.31 Mbytes
Step Temp E_pair E_mol TotEng Press 
       2            0 -2.4725663e+08            0 -2.4725663e+08   0.59533368 
       3            0 -2.4725663e+08            0 -2.4725663e+08   0.59525852 
ERROR on proc 2299: Substitution for illegal variable M (../input.cpp:553)
Last command: shell bash $MYWORK/common_files/delete_restart.sh
ERROR on proc 2300: Substitution for illegal variable M (../input.cpp:553)
Last command: shell bash $MYWORK/common_files/delete_restart.sh
ERROR on proc 815: Substitution for illegal variable M (../input.cpp:553)
Last command: shell bash $MYWORK/common_files/delete_restart.sh
ERROR on proc 440: Substitution for illegal variable M (../input.cpp:553)
Last command: shell bash $MYWORK/common_files/delete_restart.sh
ERROR on proc 774: Substitution for illegal variable M (../input.cpp:553)
Last command: shell bash $MYWORK/common_files/delete_restart.sh
Rank 0 [Sat Dec 10 20:33:10 2022] [c6-0c1s15n3] application called MPI_Abort(MPI_COMM_WORLD, 1) - process 0
ERROR on proc 1966: Substitution for illegal variable M (../input.cpp:553)
Last command: shell bash $MYWORK/common_files/delete_restart.sh
ERROR on proc 1242: Substitution for illegal variable M (../input.cpp:553)
Last command: shell bash $MYWORK/common_files/delete_restart.sh
Rank 1 [Sat Dec 10 20:33:10 2022] [c6-0c1s15n3] application called MPI_Abort(MPI_COMM_WORLD, 1) - process 1
ERROR on proc 283: Substitution for illegal variable M (../input.cpp:553)
Last command: shell bash $MYWORK/common_files/delete_restart.sh
ERROR on proc 1294: Substitution for illegal variable M (../input.cpp:553)
Last command: shell bash $MYWORK/common_files/delete_restart.sh
Rank 2 [Sat Dec 10 20:33:10 2022] [c6-0c1s15n3] application called MPI_Abort(MPI_COMM_WORLD, 1) - process 2
ERROR on proc 2400: Substitution for illegal variable M (../input.cpp:553)
Last command: shell bash $MYWORK/common_files/delete_restart.sh
Rank 1242 [Sat Dec 10 20:33:10 2022] [c6-0c2s7n2] application called MPI_Abort(MPI_COMM_WORLD, 1) - process 1242
Loop time of 0.23496 on 2560 procs for 1 steps with 60020000 atoms

100.0% CPU use with 2560 MPI tasks x no OpenMP threads

Minimization stats:
  Stopping criterion = energy tolerance
  Energy initial, next-to-last, final = 
        -247256632.205     -247256632.205     -247256632.211
  Force two-norm initial, final = 0.400931 0.313789
  Force max component initial, final = 0.0763936 0.0893914
  Final line search alpha, max atom move = 1 0.0893914
  Iterations, force evaluations = 1 2

MPI task timing breakdown:
Section |  min time  |  avg time  |  max time  |%varavg| %total
---------------------------------------------------------------
Pair    | 2.3842e-07 | 0.14699    | 0.2254     |  21.7 | 62.56
Neigh   | 0          | 0          | 0          |   0.0 |  0.00
Comm    | 0          | 0.0088974  | 0.11629    |  14.4 |  3.79
Output  | 0          | 0          | 0          |   0.0 |  0.00
Modify  | 0          | 0          | 0          |   0.0 |  0.00
Rank 2160 [Sat Dec 10 20:33:10 2022] [c6-0c2s13n1] application called MPI_Abort(MPI_COMM_WORLD, 1) - process 2160
ERROR on proc 960: Substitution for illegal variable M (../input.cpp:553)
Last command: shell bash $MYWORK/common_files/delete_restart.sh
Rank 282 [Sat Dec 10 20:33:10 2022] [c6-0c2s1n2] application called MPI_Abort(MPI_COMM_WORLD, 1) - process 282
ERROR on proc 1645: Substitution for illegal variable M (../input.cpp:553)
Last command: shell bash $MYWORK/common_files/delete_restart.sh
Rank 201 [Sat Dec 10 20:33:10 2022] [c6-0c2s1n0] application called MPI_Abort(MPI_COMM_WORLD, 1) - process 201
ERROR on proc 209: Substitution for illegal variable M (../input.cpp:553)
Last command: shell bash $MYWORK/common_files/delete_restart.sh
Rank 1243 [Sat Dec 10 20:33:10 2022] [c6-0c2s7n2] application called MPI_Abort(MPI_COMM_WORLD, 1) - process 1243
ERROR on proc 2304: Substitution for illegal variable M (../input.cpp:553)
Last command: shell bash $MYWORK/common_files/delete_restart.sh
Rank 160 [Sat Dec 10 20:33:10 2022] [c6-0c2s0n3] application called MPI_Abort(MPI_COMM_WORLD, 1) - process 160
ERROR on proc 605: Substitution for illegal variable M (../input.cpp:553)
Last command: shell bash $MYWORK/common_files/delete_restart.sh
Rank 1281 [Sat Dec 10 20:33:10 2022] [c6-0c2s7n3] application called MPI_Abort(MPI_COMM_WORLD, 1) - process 1281
ERROR on proc 49: Substitution for illegal variable M (../input.cpp:553)
Last command: shell bash $MYWORK/common_files/delete_restart.sh
Rank 880 [Sat Dec 10 20:33:10 2022] [c6-0c2s5n1] application called MPI_Abort(MPI_COMM_WORLD, 1) - process 880
ERROR on proc 2085: Substitution for illegal variable M (../input.cpp:553)
Last command: shell bash $MYWORK/common_files/delete_restart.sh
Rank 720 [Sat Dec 10 20:33:10 2022] [c6-0c2s4n1] application called MPI_Abort(MPI_COMM_WORLD, 1) - process 720
ERROR on proc 1926: Substitution for illegal variable M (../input.cpp:553)
Last command: shell bash $MYWORK/common_files/delete_restart.sh
Rank 2120 [Sat Dec 10 20:33:10 2022] [c6-0c2s13n0] application called MPI_Abort(MPI_COMM_WORLD, 1) - process 2120
ERROR on proc 2487: Substitution for illegal variable M (../input.cpp:553)
Last command: shell bash $MYWORK/common_files/delete_restart.sh
Rank 2161 [Sat Dec 10 20:33:10 2022] [c6-0c2s13n1] application called MPI_Abort(MPI_COMM_WORLD, 1) - process 2161
ERROR on proc 1170: Substitution for illegal variable M (../input.cpp:553)
Last command: shell bash $MYWORK/common_files/delete_restart.sh
Rank 440 [Sat Dec 10 20:33:10 2022] [c6-0c2s2n2] application called MPI_Abort(MPI_COMM_WORLD, 1) - process 440
ERROR on proc 1806: Substitution for illegal variable M (../input.cpp:553)
Last command: shell bash $MYWORK/common_files/delete_restart.sh
Rank 285 [Sat Dec 10 20:33:10 2022] [c6-0c2s1n2] application called MPI_Abort(MPI_COMM_WORLD, 1) - process 285
ERROR on proc 285: Substitution for illegal variable M (../input.cpp:553)
Last command: shell bash $MYWORK/common_files/delete_restart.sh
Rank 1562 [Sat Dec 10 20:33:10 2022] [c6-0c2s9n2] application called MPI_Abort(MPI_COMM_WORLD, 1) - process 1562
ERROR on proc 187: Substitution for illegal variable M (../input.cpp:553)
Last command: shell bash $MYWORK/common_files/delete_restart.sh
Rank 802 [Sat Dec 10 20:33:10 2022] [c6-0c2s4n3] application called MPI_Abort(MPI_COMM_WORLD, 1) - process 802
ERROR on proc 2246: Substitution for illegal variable M (../input.cpp:553)
Last command: shell bash $MYWORK/common_files/delete_restart.sh
Rank 761 [Sat Dec 10 20:33:10 2022] [c6-0c2s4n2] application called MPI_Abort(MPI_COMM_WORLD, 1) - process 761
ERROR on proc 2412: Substitution for illegal variable M (../input.cpp:553)
Last command: shell bash $MYWORK/common_files/delete_restart.sh
Rank 161 [Sat Dec 10 20:33:10 2022] [c6-0c2s0n3] application called MPI_Abort(MPI_COMM_WORLD, 1) - process 161
ERROR on proc 1361: Substitution for illegal variable M (../input.cpp:553)
Last command: shell bash $MYWORK/common_files/delete_restart.sh
Rank 1282 [Sat Dec 10 20:33:10 2022] [c6-0c2s7n3] application called MPI_Abort(MPI_COMM_WORLD, 1) - process 1282
ERROR on proc 884: Substitution for illegal variable M (../input.cpp:553)
Last command: shell bash $MYWORK/common_files/delete_restart.sh
Rank 881 [Sat Dec 10 20:33:10 2022] [c6-0c2s5n1] application called MPI_Abort(MPI_COMM_WORLD, 1) - process 881
Other   |            | 0.07907    |            |       | 33.65

Nlocal:    23445.3 ave 32200 max 0 min
Histogram: 640 0 0 0 0 0 0 0 0 1920
Nghost:    18785.3 ave 25737 max 0 min
Histogram: 608 32 0 0 0 0 0 16 16 1888
Neighs:    1.96812e+06 ave 2.71205e+06 max 0 min
Histogram: 640 0 0 0 0 0 0 0 1 1919

Total # of neighbors = 5.0384e+09
Ave neighs/atom = 83.9453
Neighbor list builds = 0
Dangerous builds = 0
ERROR on proc 0: Substitution for illegal variable M (../input.cpp:553)
Last command: shell bash $MYWORK/common_files/delete_restart.sh
Rank 721 [Sat Dec 10 20:33:10 2022] [c6-0c2s4n1] application called MPI_Abort(MPI_COMM_WORLD, 1) - process 721
ERROR on proc 1403: Substitution for illegal variable M (../input.cpp:553)
Last command: shell bash $MYWORK/common_files/delete_restart.sh
Rank 2121 [Sat Dec 10 20:33:10 2022] [c6-0c2s13n0] application called MPI_Abort(MPI_COMM_WORLD, 1) - process 2121
ERROR on proc 2138: Substitution for illegal variable M (../input.cpp:553)
Last command: shell bash $MYWORK/common_files/delete_restart.sh
Rank 1641 [Sat Dec 10 20:33:10 2022] [c6-0c2s10n0] application called MPI_Abort(MPI_COMM_WORLD, 1) - process 1641
ERROR on proc 1647: Substitution for illegal variable M (../input.cpp:553)
Last command: shell bash $MYWORK/common_files/delete_restart.sh
Rank 2200 [Sat Dec 10 20:33:10 2022] [c6-0c2s13n2] application called MPI_Abort(MPI_COMM_WORLD, 1) - process 2200
ERROR on proc 223: Substitution for illegal variable M (../input.cpp:553)
Last command: shell bash $MYWORK/common_files/delete_restart.sh
Rank 80 [Sat Dec 10 20:33:10 2022] [c6-0c2s0n1] application called MPI_Abort(MPI_COMM_WORLD, 1) - process 80
ERROR on proc 2532: Substitution for illegal variable M (../input.cpp:553)
Last command: shell bash $MYWORK/common_files/delete_restart.sh
Rank 2162 [Sat Dec 10 20:33:10 2022] [c6-0c2s13n1] application called MPI_Abort(MPI_COMM_WORLD, 1) - process 2162
ERROR on proc 2305: Substitution for illegal variable M (../input.cpp:553)
Last command: shell bash $MYWORK/common_files/delete_restart.sh
Rank 920 [Sat Dec 10 20:33:10 2022] [c6-0c2s5n2] application called MPI_Abort(MPI_COMM_WORLD, 1) - process 920
ERROR on proc 81: Substitution for illegal variable M (../input.cpp:553)
Last command: shell bash $MYWORK/common_files/delete_restart.sh
Rank 1962 [Sat Dec 10 20:33:10 2022] [c6-0c2s12n0] application called MPI_Abort(MPI_COMM_WORLD, 1) - process 1962
ERROR on proc 240: Substitution for illegal variable M (../input.cpp:553)
Last command: shell bash $MYWORK/common_files/delete_restart.sh
Rank 286 [Sat Dec 10 20:33:10 2022] [c6-0c2s1n2] application called MPI_Abort(MPI_COMM_WORLD, 1) - process 286
ERROR on proc 2442: Substitution for illegal variable M (../input.cpp:553)
Last command: shell bash $MYWORK/common_files/delete_restart.sh
Rank 560 [Sat Dec 10 20:33:10 2022] [c6-0c2s3n1] application called MPI_Abort(MPI_COMM_WORLD, 1) - process 560
ERROR on proc 775: Substitution for illegal variable M (../input.cpp:553)
Last command: shell bash $MYWORK/common_files/delete_restart.sh
Rank 1120 [Sat Dec 10 20:33:10 2022] [c6-0c2s6n3] application called MPI_Abort(MPI_COMM_WORLD, 1) - process 1120
ERROR on proc 522: Substitution for illegal variable M (../input.cpp:553)
Last command: shell bash $MYWORK/common_files/delete_restart.sh
Rank 1563 [Sat Dec 10 20:33:10 2022] [c6-0c2s9n2] application called MPI_Abort(MPI_COMM_WORLD, 1) - process 1563
ERROR on proc 300: Substitution for illegal variable M (../input.cpp:553)
Last command: shell bash $MYWORK/common_files/delete_restart.sh
Rank 81 [Sat Dec 10 20:33:10 2022] [c6-0c2s0n1] application called MPI_Abort(MPI_COMM_WORLD, 1) - process 81
ERROR on proc 130: Substitution for illegal variable M (../input.cpp:553)
Last command: shell bash $MYWORK/common_files/delete_restart.sh
Rank 803 [Sat Dec 10 20:33:10 2022] [c6-0c2s4n3] application called MPI_Abort(MPI_COMM_WORLD, 1) - process 803
ERROR on proc 1295: Substitution for illegal variable M (../input.cpp:553)
Last command: shell bash $MYWORK/common_files/delete_restart.sh
Rank 442 [Sat Dec 10 20:33:10 2022] [c6-0c2s2n2] application called MPI_Abort(MPI_COMM_WORLD, 1) - process 442
ERROR on proc 2415: Substitution for illegal variable M (../input.cpp:553)
Last command: shell bash $MYWORK/common_files/delete_restart.sh
Rank 1000 [Sat Dec 10 20:33:10 2022] [c6-0c2s6n0] application called MPI_Abort(MPI_COMM_WORLD, 1) - process 1000
ERROR on proc 1128: Substitution for illegal variable M (../input.cpp:553)
Last command: shell bash $MYWORK/common_files/delete_restart.sh
Rank 1246 [Sat Dec 10 20:33:10 2022] [c6-0c2s7n2] application called MPI_Abort(MPI_COMM_WORLD, 1) - process 1246
ERROR on proc 735: Substitution for illegal variable M (../input.cpp:553)
Last command: shell bash $MYWORK/common_files/delete_restart.sh
Rank 120 [Sat Dec 10 20:33:10 2022] [c6-0c2s0n2] application called MPI_Abort(MPI_COMM_WORLD, 1) - process 120
ERROR on proc 32: Substitution for illegal variable M (../input.cpp:553)
Last command: shell bash $MYWORK/common_files/delete_restart.sh
Rank 162 [Sat Dec 10 20:33:10 2022] [c6-0c2s0n3] application called MPI_Abort(MPI_COMM_WORLD, 1) - process 162
ERROR on proc 1649: Substitution for illegal variable M (../input.cpp:553)
Last command: shell bash $MYWORK/common_files/delete_restart.sh
Rank 1283 [Sat Dec 10 20:33:10 2022] [c6-0c2s7n3] application called MPI_Abort(MPI_COMM_WORLD, 1) - process 1283
ERROR on proc 226: Substitution for illegal variable M (../input.cpp:553)
Last command: shell bash $MYWORK/common_files/delete_restart.sh
Rank 882 [Sat Dec 10 20:33:10 2022] [c6-0c2s5n1] application called MPI_Abort(MPI_COMM_WORLD, 1) - process 882
ERROR on proc 1886: Substitution for illegal variable M (../input.cpp:553)
Last command: shell bash $MYWORK/common_files/delete_restart.sh
Rank 722 [Sat Dec 10 20:33:10 2022] [c6-0c2s4n1] application called MPI_Abort(MPI_COMM_WORLD, 1) - process 722
ERROR on proc 2207: Substitution for illegal variable M (../input.cpp:553)
Last command: shell bash $MYWORK/common_files/delete_restart.sh
Rank 1642 [Sat Dec 10 20:33:10 2022] [c6-0c2s10n0] application called MPI_Abort(MPI_COMM_WORLD, 1) - process 1642
ERROR on proc 2309: Substitution for illegal variable M (../input.cpp:553)
Last command: shell bash $MYWORK/common_files/delete_restart.sh
Rank 2201 [Sat Dec 10 20:33:10 2022] [c6-0c2s13n2] application called MPI_Abort(MPI_COMM_WORLD, 1) - process 2201
ERROR on proc 2160: Substitution for illegal variable M (../input.cpp:553)
Last command: shell bash $MYWORK/common_files/delete_restart.sh
Rank 2520 [Sat Dec 10 20:33:10 2022] [c6-0c2s15n2] application called MPI_Abort(MPI_COMM_WORLD, 1) - process 2520
ERROR on proc 1200: Substitution for illegal variable M (../input.cpp:553)
Last command: shell bash $MYWORK/common_files/delete_restart.sh
Rank 2163 [Sat Dec 10 20:33:10 2022] [c6-0c2s13n1] application called MPI_Abort(MPI_COMM_WORLD, 1) - process 2163
ERROR on proc 1767: Substitution for illegal variable M (../input.cpp:553)
Last command: shell bash $MYWORK/common_files/delete_restart.sh
Rank 1163 [Sat Dec 10 20:33:10 2022] [c6-0c2s7n0] application called MPI_Abort(MPI_COMM_WORLD, 1) - process 1163
ERROR on proc 2001: Substitution for illegal variable M (../input.cpp:553)
Last command: shell bash $MYWORK/common_files/delete_restart.sh
Rank 320 [Sat Dec 10 20:33:10 2022] [c6-0c2s1n3] application called MPI_Abort(MPI_COMM_WORLD, 1) - process 320
ERROR on proc 490: Substitution for illegal variable M (../input.cpp:553)
Last command: shell bash $MYWORK/common_files/delete_restart.sh
Rank 480 [Sat Dec 10 20:33:10 2022] [c6-0c2s2n3] application called MPI_Abort(MPI_COMM_WORLD, 1) - process 480
ERROR on proc 1323: Substitution for illegal variable M (../input.cpp:553)
Last command: shell bash $MYWORK/common_files/delete_restart.sh
Rank 921 [Sat Dec 10 20:33:10 2022] [c6-0c2s5n2] application called MPI_Abort(MPI_COMM_WORLD, 1) - process 921
ERROR on proc 931: Substitution for illegal variable M (../input.cpp:553)
Last command: shell bash $MYWORK/common_files/delete_restart.sh
Rank 1963 [Sat Dec 10 20:33:10 2022] [c6-0c2s12n0] application called MPI_Abort(MPI_COMM_WORLD, 1) - process 1963
ERROR on proc 1728: Substitution for illegal variable M (../input.cpp:553)
Last command: shell bash $MYWORK/common_files/delete_restart.sh
Rank 561 [Sat Dec 10 20:33:10 2022] [c6-0c2s3n1] application called MPI_Abort(MPI_COMM_WORLD, 1) - process 561
ERROR on proc 1006: Substitution for illegal variable M (../input.cpp:553)
Last command: shell bash $MYWORK/common_files/delete_restart.sh
Rank 1600 [Sat Dec 10 20:33:10 2022] [c6-0c2s9n3] application called MPI_Abort(MPI_COMM_WORLD, 1) - process 1600
ERROR on proc 1967: Substitution for illegal variable M (../input.cpp:553)
Last command: shell bash $MYWORK/common_files/delete_restart.sh
Rank 2240 [Sat Dec 10 20:33:10 2022] [c6-0c2s13n3] application called MPI_Abort(MPI_COMM_WORLD, 1) - process 2240
ERROR on proc 1269: Substitution for illegal variable M (../input.cpp:553)
Last command: shell bash $MYWORK/common_files/delete_restart.sh
Rank 1121 [Sat Dec 10 20:33:10 2022] [c6-0c2s6n3] application called MPI_Abort(MPI_COMM_WORLD, 1) - process 1121
ERROR on proc 2041: Substitution for illegal variable M (../input.cpp:553)
Last command: shell bash $MYWORK/common_files/delete_restart.sh
Rank 9 [Sat Dec 10 20:33:10 2022] [c6-0c1s15n3] application called MPI_Abort(MPI_COMM_WORLD, 1) - process 9
ERROR on proc 303: Substitution for illegal variable M (../input.cpp:553)
Last command: shell bash $MYWORK/common_files/delete_restart.sh
Rank 1564 [Sat Dec 10 20:33:10 2022] [c6-0c2s9n2] application called MPI_Abort(MPI_COMM_WORLD, 1) - process 1564
ERROR on proc 579: Substitution for illegal variable M (../input.cpp:553)
Last command: shell bash $MYWORK/common_files/delete_restart.sh
Rank 82 [Sat Dec 10 20:33:10 2022] [c6-0c2s0n1] application called MPI_Abort(MPI_COMM_WORLD, 1) - process 82
ERROR on proc 2254: Substitution for illegal variable M (../input.cpp:553)
Last command: shell bash $MYWORK/common_files/delete_restart.sh
Rank 804 [Sat Dec 10 20:33:10 2022] [c6-0c2s4n3] application called MPI_Abort(MPI_COMM_WORLD, 1) - process 804
ERROR on proc 902: Substitution for illegal variable M (../input.cpp:553)
Last command: shell bash $MYWORK/common_files/delete_restart.sh
Rank 764 [Sat Dec 10 20:33:10 2022] [c6-0c2s4n2] application called MPI_Abort(MPI_COMM_WORLD, 1) - process 764
ERROR on proc 1408: Substitution for illegal variable M (../input.cpp:553)
Last command: shell bash $MYWORK/common_files/delete_restart.sh
Rank 1720 [Sat Dec 10 20:33:10 2022] [c6-0c2s10n2] application called MPI_Abort(MPI_COMM_WORLD, 1) - process 1720
ERROR on proc 1652: Substitution for illegal variable M (../input.cpp:553)
Last command: shell bash $MYWORK/common_files/delete_restart.sh
Rank 1001 [Sat Dec 10 20:33:10 2022] [c6-0c2s6n0] application called MPI_Abort(MPI_COMM_WORLD, 1) - process 1001
ERROR on proc 2316: Substitution for illegal variable M (../input.cpp:553)
Last command: shell bash $MYWORK/common_files/delete_restart.sh
Rank 288 [Sat Dec 10 20:33:10 2022] [c6-0c2s1n2] application called MPI_Abort(MPI_COMM_WORLD, 1) - process 288
ERROR on proc 369: Substitution for illegal variable M (../input.cpp:553)
Last command: shell bash $MYWORK/common_files/delete_restart.sh
Rank 121 [Sat Dec 10 20:33:10 2022] [c6-0c2s0n2] application called MPI_Abort(MPI_COMM_WORLD, 1) - process 121
ERROR on proc 87: Substitution for illegal variable M (../input.cpp:553)
Last command: shell bash $MYWORK/common_files/delete_restart.sh
Rank 163 [Sat Dec 10 20:33:10 2022] [c6-0c2s0n3] application called MPI_Abort(MPI_COMM_WORLD, 1) - process 163
ERROR on proc 1052: Substitution for illegal variable M (../input.cpp:553)
Last command: shell bash $MYWORK/common_files/delete_restart.sh
Rank 1284 [Sat Dec 10 20:33:10 2022] [c6-0c2s7n3] application called MPI_Abort(MPI_COMM_WORLD, 1) - process 1284
ERROR on proc 2362: Substitution for illegal variable M (../input.cpp:553)
Last command: shell bash $MYWORK/common_files/delete_restart.sh
Rank 2409 [Sat Dec 10 20:33:10 2022] [c6-0c2s14n3] application called MPI_Abort(MPI_COMM_WORLD, 1) - process 2409
ERROR on proc 1174: Substitution for illegal variable M (../input.cpp:553)
Last command: shell bash $MYWORK/common_files/delete_restart.sh
Rank 883 [Sat Dec 10 20:33:10 2022] [c6-0c2s5n1] application called MPI_Abort(MPI_COMM_WORLD, 1) - process 883
ERROR on proc 821: Substitution for illegal variable M (../input.cpp:553)
Last command: shell bash $MYWORK/common_files/delete_restart.sh
Rank 723 [Sat Dec 10 20:33:10 2022] [c6-0c2s4n1] application called MPI_Abort(MPI_COMM_WORLD, 1) - process 723
ERROR on proc 2324: Substitution for illegal variable M (../input.cpp:553)
Last command: shell bash $MYWORK/common_files/delete_restart.sh
Rank 2124 [Sat Dec 10 20:33:10 2022] [c6-0c2s13n0] application called MPI_Abort(MPI_COMM_WORLD, 1) - process 2124
ERROR on proc 686: Substitution for illegal variable M (../input.cpp:553)
Last command: shell bash $MYWORK/common_files/delete_restart.sh
Rank 1643 [Sat Dec 10 20:33:10 2022] [c6-0c2s10n0] application called MPI_Abort(MPI_COMM_WORLD, 1) - process 1643
ERROR on proc 1807: Substitution for illegal variable M (../input.cpp:553)
Last command: shell bash $MYWORK/common_files/delete_restart.sh
Rank 207 [Sat Dec 10 20:33:10 2022] [c6-0c2s1n0] application called MPI_Abort(MPI_COMM_WORLD, 1) - process 207
ERROR on proc 132: Substitution for illegal variable M (../input.cpp:553)
Last command: shell bash $MYWORK/common_files/delete_restart.sh
Rank 2202 [Sat Dec 10 20:33:10 2022] [c6-0c2s13n2] application called MPI_Abort(MPI_COMM_WORLD, 1) - process 2202
ERROR on proc 192: Substitution for illegal variable M (../input.cpp:553)
Last command: shell bash $MYWORK/common_files/delete_restart.sh
Rank 2521 [Sat Dec 10 20:33:10 2022] [c6-0c2s15n2] application called MPI_Abort(MPI_COMM_WORLD, 1) - process 2521
ERROR on proc 1304: Substitution for illegal variable M (../input.cpp:553)
Last command: shell bash $MYWORK/common_files/delete_restart.sh
Rank 1440 [Sat Dec 10 20:33:10 2022] [c6-0c2s8n3] application called MPI_Abort(MPI_COMM_WORLD, 1) - process 1440
ERROR on proc 1372: Substitution for illegal variable M (../input.cpp:553)
Last command: shell bash $MYWORK/common_files/delete_restart.sh
Rank 2164 [Sat Dec 10 20:33:10 2022] [c6-0c2s13n1] application called MPI_Abort(MPI_COMM_WORLD, 1) - process 2164
ERROR on proc 739: Substitution for illegal variable M (../input.cpp:553)
Last command: shell bash $MYWORK/common_files/delete_restart.sh
Rank 1164 [Sat Dec 10 20:33:10 2022] [c6-0c2s7n0] application called MPI_Abort(MPI_COMM_WORLD, 1) - process 1164
ERROR on proc 1: Substitution for illegal variable M (../input.cpp:553)
Last command: shell bash $MYWORK/common_files/delete_restart.sh
Rank 321 [Sat Dec 10 20:33:10 2022] [c6-0c2s1n3] application called MPI_Abort(MPI_COMM_WORLD, 1) - process 321
ERROR on proc 963: Substitution for illegal variable M (../input.cpp:553)
Last command: shell bash $MYWORK/common_files/delete_restart.sh
Rank 2320 [Sat Dec 10 20:33:10 2022] [c6-0c2s14n1] application called MPI_Abort(MPI_COMM_WORLD, 1) - process 2320
ERROR on proc 1412: Substitution for illegal variable M (../input.cpp:553)
Last command: shell bash $MYWORK/common_files/delete_restart.sh
Rank 1760 [Sat Dec 10 20:33:10 2022] [c6-0c2s10n3] application called MPI_Abort(MPI_COMM_WORLD, 1) - process 1760
ERROR on proc 1661: Substitution for illegal variable M (../input.cpp:553)
Last command: shell bash $MYWORK/common_files/delete_restart.sh
Rank 481 [Sat Dec 10 20:33:10 2022] [c6-0c2s2n3] application called MPI_Abort(MPI_COMM_WORLD, 1) - process 481
ERROR on proc 227: Substitution for illegal variable M (../input.cpp:553)
Last command: shell bash $MYWORK/common_files/delete_restart.sh
Rank 444 [Sat Dec 10 20:33:10 2022] [c6-0c2s2n2] application called MPI_Abort(MPI_COMM_WORLD, 1) - process 444
ERROR on proc 2535: Substitution for illegal variable M (../input.cpp:553)
Last command: shell bash $MYWORK/common_files/delete_restart.sh
Rank 922 [Sat Dec 10 20:33:10 2022] [c6-0c2s5n2] application called MPI_Abort(MPI_COMM_WORLD, 1) - process 922
ERROR on proc 2280: Substitution for illegal variable M (../input.cpp:553)
Last command: shell bash $MYWORK/common_files/delete_restart.sh
Rank 520 [Sat Dec 10 20:33:10 2022] [c6-0c2s3n0] application called MPI_Abort(MPI_COMM_WORLD, 1) - process 520
ERROR on proc 841: Substitution for illegal variable M (../input.cpp:553)
Last command: shell bash $MYWORK/common_files/delete_restart.sh
Rank 1964 [Sat Dec 10 20:33:10 2022] [c6-0c2s12n0] application called MPI_Abort(MPI_COMM_WORLD, 1) - process 1964
ERROR on proc 1089: Substitution for illegal variable M (../input.cpp:553)
Last command: shell bash $MYWORK/common_files/delete_restart.sh
Rank 1248 [Sat Dec 10 20:33:10 2022] [c6-0c2s7n2] application called MPI_Abort(MPI_COMM_WORLD, 1) - process 1248
ERROR on proc 1848: Substitution for illegal variable M (../input.cpp:553)
Last command: shell bash $MYWORK/common_files/delete_restart.sh
Rank 2040 [Sat Dec 10 20:33:10 2022] [c6-0c2s12n2] application called MPI_Abort(MPI_COMM_WORLD, 1) - process 2040
ERROR on proc 248: Substitution for illegal variable M (../input.cpp:553)
Last command: shell bash $MYWORK/common_files/delete_restart.sh
Rank 562 [Sat Dec 10 20:33:10 2022] [c6-0c2s3n1] application called MPI_Abort(MPI_COMM_WORLD, 1) - process 562
ERROR on proc 322: Substitution for illegal variable M (../input.cpp:553)
Last command: shell bash $MYWORK/common_files/delete_restart.sh
Rank 1601 [Sat Dec 10 20:33:10 2022] [c6-0c2s9n3] application called MPI_Abort(MPI_COMM_WORLD, 1) - process 1601
ERROR on proc 1778: Substitution for illegal variable M (../input.cpp:553)
Last command: shell bash $MYWORK/common_files/delete_restart.sh
Rank 2241 [Sat Dec 10 20:33:10 2022] [c6-0c2s13n3] application called MPI_Abort(MPI_COMM_WORLD, 1) - process 2241
ERROR on proc 2444: Substitution for illegal variable M (../input.cpp:553)
Last command: shell bash $MYWORK/common_files/delete_restart.sh
Rank 1122 [Sat Dec 10 20:33:10 2022] [c6-0c2s6n3] application called MPI_Abort(MPI_COMM_WORLD, 1) - process 1122
ERROR on proc 455: Substitution for illegal variable M (../input.cpp:553)
Last command: shell bash $MYWORK/common_files/delete_restart.sh
Rank 884 [Sat Dec 10 20:33:10 2022] [c6-0c2s5n1] application called MPI_Abort(MPI_COMM_WORLD, 1) - process 884
ERROR on proc 1327: Substitution for illegal variable M (../input.cpp:553)
Last command: shell bash $MYWORK/common_files/delete_restart.sh
Rank 1520 [Sat Dec 10 20:33:10 2022] [c6-0c2s9n1] application called MPI_Abort(MPI_COMM_WORLD, 1) - process 1520
ERROR on proc 786: Substitution for illegal variable M (../input.cpp:553)
Last command: shell bash $MYWORK/common_files/delete_restart.sh
Rank 10 [Sat Dec 10 20:33:10 2022] [c6-0c1s15n3] application called MPI_Abort(MPI_COMM_WORLD, 1) - process 10
ERROR on proc 937: Substitution for illegal variable M (../input.cpp:553)
Last command: shell bash $MYWORK/common_files/delete_restart.sh
Rank 805 [Sat Dec 10 20:33:10 2022] [c6-0c2s4n3] application called MPI_Abort(MPI_COMM_WORLD, 1) - process 805
ERROR on proc 523: Substitution for illegal variable M (../input.cpp:553)
Last command: shell bash $MYWORK/common_files/delete_restart.sh
Rank 322 [Sat Dec 10 20:33:10 2022] [c6-0c2s1n3] application called MPI_Abort(MPI_COMM_WORLD, 1) - process 322
ERROR on proc 1734: Substitution for illegal variable M (../input.cpp:553)
Last command: shell bash $MYWORK/common_files/delete_restart.sh
Rank 2440 [Sat Dec 10 20:33:10 2022] [c6-0c2s15n0] application called MPI_Abort(MPI_COMM_WORLD, 1) - process 2440
ERROR on proc 1010: Substitution for illegal variable M (../input.cpp:553)
Last command: shell bash $MYWORK/common_files/delete_restart.sh
Rank 1320 [Sat Dec 10 20:33:10 2022] [c6-0c2s8n0] application called MPI_Abort(MPI_COMM_WORLD, 1) - process 1320
ERROR on proc 1808: Substitution for illegal variable M (../input.cpp:553)
Last command: shell bash $MYWORK/common_files/delete_restart.sh
Rank 765 [Sat Dec 10 20:33:10 2022] [c6-0c2s4n2] application called MPI_Abort(MPI_COMM_WORLD, 1) - process 765
ERROR on proc 313: Substitution for illegal variable M (../input.cpp:553)
Last command: shell bash $MYWORK/common_files/delete_restart.sh
Rank 1721 [Sat Dec 10 20:33:10 2022] [c6-0c2s10n2] application called MPI_Abort(MPI_COMM_WORLD, 1) - process 1721
ERROR on proc 146: Substitution for illegal variable M (../input.cpp:553)
Last command: shell bash $MYWORK/common_files/delete_restart.sh
Rank 1002 [Sat Dec 10 20:33:10 2022] [c6-0c2s6n0] application called MPI_Abort(MPI_COMM_WORLD, 1) - process 1002
ERROR on proc 193: Substitution for illegal variable M (../input.cpp:553)
Last command: shell bash $MYWORK/common_files/delete_restart.sh
Rank 2041 [Sat Dec 10 20:33:10 2022] [c6-0c2s12n2] application called MPI_Abort(MPI_COMM_WORLD, 1) - process 2041
ERROR on proc 1685: Substitution for illegal variable M (../input.cpp:553)
Last command: shell bash $MYWORK/common_files/delete_restart.sh
Rank 122 [Sat Dec 10 20:33:10 2022] [c6-0c2s0n2] application called MPI_Abort(MPI_COMM_WORLD, 1) - process 122
ERROR on proc 1307: Substitution for illegal variable M (../input.cpp:553)
Last command: shell bash $MYWORK/common_files/delete_restart.sh
Rank 164 [Sat Dec 10 20:33:10 2022] [c6-0c2s0n3] application called MPI_Abort(MPI_COMM_WORLD, 1) - process 164
ERROR on proc 1605: Substitution for illegal variable M (../input.cpp:553)
Last command: shell bash $MYWORK/common_files/delete_restart.sh
Rank 1285 [Sat Dec 10 20:33:10 2022] [c6-0c2s7n3] application called MPI_Abort(MPI_COMM_WORLD, 1) - process 1285
ERROR on proc 2255: Substitution for illegal variable M (../input.cpp:553)
Last command: shell bash $MYWORK/common_files/delete_restart.sh
Rank 724 [Sat Dec 10 20:33:10 2022] [c6-0c2s4n1] application called MPI_Abort(MPI_COMM_WORLD, 1) - process 724
ERROR on proc 2432: Substitution for illegal variable M (../input.cpp:553)
Last command: shell bash $MYWORK/common_files/delete_restart.sh
Rank 961 [Sat Dec 10 20:33:10 2022] [c6-0c2s5n3] application called MPI_Abort(MPI_COMM_WORLD, 1) - process 961
ERROR on proc 648: Substitution for illegal variable M (../input.cpp:553)
Last command: shell bash $MYWORK/common_files/delete_restart.sh
Rank 2125 [Sat Dec 10 20:33:10 2022] [c6-0c2s13n0] application called MPI_Abort(MPI_COMM_WORLD, 1) - process 2125
ERROR on proc 1131: Substitution for illegal variable M (../input.cpp:553)
Last command: shell bash $MYWORK/common_files/delete_restart.sh
Rank 1644 [Sat Dec 10 20:33:10 2022] [c6-0c2s10n0] application called MPI_Abort(MPI_COMM_WORLD, 1) - process 1644
ERROR on proc 1373: Substitution for illegal variable M (../input.cpp:553)
Last command: shell bash $MYWORK/common_files/delete_restart.sh
Rank 2203 [Sat Dec 10 20:33:10 2022] [c6-0c2s13n2] application called MPI_Abort(MPI_COMM_WORLD, 1) - process 2203
ERROR on proc 905: Substitution for illegal variable M (../input.cpp:553)
Last command: shell bash $MYWORK/common_files/delete_restart.sh
Rank 2522 [Sat Dec 10 20:33:10 2022] [c6-0c2s15n2] application called MPI_Abort(MPI_COMM_WORLD, 1) - process 2522
ERROR on proc 754: Substitution for illegal variable M (../input.cpp:553)
Last command: shell bash $MYWORK/common_files/delete_restart.sh
Rank 840 [Sat Dec 10 20:33:10 2022] [c6-0c2s5n0] application called MPI_Abort(MPI_COMM_WORLD, 1) - process 840
ERROR on proc 2143: Substitution for illegal variable M (../input.cpp:553)
Last command: shell bash $MYWORK/common_files/delete_restart.sh
Rank 1441 [Sat Dec 10 20:33:10 2022] [c6-0c2s8n3] application called MPI_Abort(MPI_COMM_WORLD, 1) - process 1441
ERROR on proc 230: Substitution for illegal variable M (../input.cpp:553)
Last command: shell bash $MYWORK/common_files/delete_restart.sh
Rank 84 [Sat Dec 10 20:33:10 2022] [c6-0c2s0n1] application called MPI_Abort(MPI_COMM_WORLD, 1) - process 84
ERROR on proc 1887: Substitution for illegal variable M (../input.cpp:553)
Last command: shell bash $MYWORK/common_files/delete_restart.sh
Rank 2165 [Sat Dec 10 20:33:10 2022] [c6-0c2s13n1] application called MPI_Abort(MPI_COMM_WORLD, 1) - process 2165
ERROR on proc 2209: Substitution for illegal variable M (../input.cpp:553)
Last command: shell bash $MYWORK/common_files/delete_restart.sh
Rank 1165 [Sat Dec 10 20:33:10 2022] [c6-0c2s7n0] application called MPI_Abort(MPI_COMM_WORLD, 1) - process 1165
ERROR on proc 2538: Substitution for illegal variable M (../input.cpp:553)
Last command: shell bash $MYWORK/common_files/delete_restart.sh
Rank 2321 [Sat Dec 10 20:33:10 2022] [c6-0c2s14n1] application called MPI_Abort(MPI_COMM_WORLD, 1) - process 2321
ERROR on proc 2281: Substitution for illegal variable M (../input.cpp:553)
Last command: shell bash $MYWORK/common_files/delete_restart.sh
Rank 1761 [Sat Dec 10 20:33:10 2022] [c6-0c2s10n3] application called MPI_Abort(MPI_COMM_WORLD, 1) - process 1761
ERROR on proc 1570: Substitution for illegal variable M (../input.cpp:553)
Last command: shell bash $MYWORK/common_files/delete_restart.sh
Rank 482 [Sat Dec 10 20:33:10 2022] [c6-0c2s2n3] application called MPI_Abort(MPI_COMM_WORLD, 1) - process 482
ERROR on proc 92: Substitution for illegal variable M (../input.cpp:553)
Last command: shell bash $MYWORK/common_files/delete_restart.sh
Rank 445 [Sat Dec 10 20:33:10 2022] [c6-0c2s2n2] application called MPI_Abort(MPI_COMM_WORLD, 1) - process 445
ERROR on proc 2095: Substitution for illegal variable M (../input.cpp:553)
Last command: shell bash $MYWORK/common_files/delete_restart.sh
Rank 923 [Sat Dec 10 20:33:10 2022] [c6-0c2s5n2] application called MPI_Abort(MPI_COMM_WORLD, 1) - process 923
ERROR on proc 2168: Substitution for illegal variable M (../input.cpp:553)
Last command: shell bash $MYWORK/common_files/delete_restart.sh
Rank 521 [Sat Dec 10 20:33:10 2022] [c6-0c2s3n0] application called MPI_Abort(MPI_COMM_WORLD, 1) - process 521
ERROR on proc 401: Substitution for illegal variable M (../input.cpp:553)
Last command: shell bash $MYWORK/common_files/delete_restart.sh
Rank 1965 [Sat Dec 10 20:33:10 2022] [c6-0c2s12n0] application called MPI_Abort(MPI_COMM_WORLD, 1) - process 1965
ERROR on proc 1179: Substitution for illegal variable M (../input.cpp:553)
Last command: shell bash $MYWORK/common_files/delete_restart.sh
Rank 2042 [Sat Dec 10 20:33:10 2022] [c6-0c2s12n2] application called MPI_Abort(MPI_COMM_WORLD, 1) - process 2042
ERROR on proc 255: Substitution for illegal variable M (../input.cpp:553)
Last command: shell bash $MYWORK/common_files/delete_restart.sh
Rank 290 [Sat Dec 10 20:33:10 2022] [c6-0c2s1n2] application called MPI_Abort(MPI_COMM_WORLD, 1) - process 290
ERROR on proc 828: Substitution for illegal variable M (../input.cpp:553)
Last command: shell bash $MYWORK/common_files/delete_restart.sh
Rank 563 [Sat Dec 10 20:33:10 2022] [c6-0c2s3n1] application called MPI_Abort(MPI_COMM_WORLD, 1) - process 563
ERROR on proc 2326: Substitution for illegal variable M (../input.cpp:553)
Last command: shell bash $MYWORK/common_files/delete_restart.sh
Rank 1602 [Sat Dec 10 20:33:10 2022] [c6-0c2s9n3] application called MPI_Abort(MPI_COMM_WORLD, 1) - process 1602
ERROR on proc 1780: Substitution for illegal variable M (../input.cpp:553)
Last command: shell bash $MYWORK/common_files/delete_restart.sh
Rank 2242 [Sat Dec 10 20:33:10 2022] [c6-0c2s13n3] application called MPI_Abort(MPI_COMM_WORLD, 1) - process 2242
ERROR on proc 2002: Substitution for illegal variable M (../input.cpp:553)
Last command: shell bash $MYWORK/common_files/delete_restart.sh
Rank 2411 [Sat Dec 10 20:33:10 2022] [c6-0c2s14n3] application called MPI_Abort(MPI_COMM_WORLD, 1) - process 2411
ERROR on proc 491: Substitution for illegal variable M (../input.cpp:553)
Last command: shell bash $MYWORK/common_files/delete_restart.sh
Rank 640 [Sat Dec 10 20:33:10 2022] [c6-0c2s3n3] application called MPI_Abort(MPI_COMM_WORLD, 1) - process 640
ERROR on proc 2445: Substitution for illegal variable M (../input.cpp:553)
Last command: shell bash $MYWORK/common_files/delete_restart.sh
Rank 1123 [Sat Dec 10 20:33:10 2022] [c6-0c2s6n3] application called MPI_Abort(MPI_COMM_WORLD, 1) - process 1123
ERROR on proc 688: Substitution for illegal variable M (../input.cpp:553)
Last command: shell bash $MYWORK/common_files/delete_restart.sh
Rank 885 [Sat Dec 10 20:33:10 2022] [c6-0c2s5n1] application called MPI_Abort(MPI_COMM_WORLD, 1) - process 885
ERROR on proc 1333: Substitution for illegal variable M (../input.cpp:553)
Last command: shell bash $MYWORK/common_files/delete_restart.sh
Rank 1521 [Sat Dec 10 20:33:10 2022] [c6-0c2s9n1] application called MPI_Abort(MPI_COMM_WORLD, 1) - process 1521
ERROR on proc 790: Substitution for illegal variable M (../input.cpp:553)
Last command: shell bash $MYWORK/common_files/delete_restart.sh
Rank 1645 [Sat Dec 10 20:33:10 2022] [c6-0c2s10n0] application called MPI_Abort(MPI_COMM_WORLD, 1) - process 1645
ERROR on proc 939: Substitution for illegal variable M (../input.cpp:553)
Last command: shell bash $MYWORK/common_files/delete_restart.sh
Rank 210 [Sat Dec 10 20:33:10 2022] [c6-0c2s1n0] application called MPI_Abort(MPI_COMM_WORLD, 1) - process 210
ERROR on proc 526: Substitution for illegal variable M (../input.cpp:553)
Last command: shell bash $MYWORK/common_files/delete_restart.sh
Rank 1567 [Sat Dec 10 20:33:10 2022] [c6-0c2s9n2] application called MPI_Abort(MPI_COMM_WORLD, 1) - process 1567
ERROR on proc 1735: Substitution for illegal variable M (../input.cpp:553)
Last command: shell bash $MYWORK/common_files/delete_restart.sh
Rank 841 [Sat Dec 10 20:33:10 2022] [c6-0c2s5n0] application called MPI_Abort(MPI_COMM_WORLD, 1) - process 841
ERROR on proc 1023: Substitution for illegal variable M (../input.cpp:553)
Last command: shell bash $MYWORK/common_files/delete_restart.sh
Rank 2082 [Sat Dec 10 20:33:10 2022] [c6-0c2s12n3] application called MPI_Abort(MPI_COMM_WORLD, 1) - process 2082
ERROR on proc 1980: Substitution for illegal variable M (../input.cpp:553)
Last command: shell bash $MYWORK/common_files/delete_restart.sh
Rank 806 [Sat Dec 10 20:33:10 2022] [c6-0c2s4n3] application called MPI_Abort(MPI_COMM_WORLD, 1) - process 806
ERROR on proc 1810: Substitution for illegal variable M (../input.cpp:553)
Last command: shell bash $MYWORK/common_files/delete_restart.sh
Rank 323 [Sat Dec 10 20:33:10 2022] [c6-0c2s1n3] application called MPI_Abort(MPI_COMM_WORLD, 1) - process 323
ERROR on proc 1240: Substitution for illegal variable M (../input.cpp:553)
Last command: shell bash $MYWORK/common_files/delete_restart.sh
Rank 2441 [Sat Dec 10 20:33:10 2022] [c6-0c2s15n0] application called MPI_Abort(MPI_COMM_WORLD, 1) - process 2441
ERROR on proc 2042: Substitution for illegal variable M (../input.cpp:553)
Last command: shell bash $MYWORK/common_files/delete_restart.sh
Rank 680 [Sat Dec 10 20:33:10 2022] [c6-0c2s4n0] application called MPI_Abort(MPI_COMM_WORLD, 1) - process 680
ERROR on proc 280: Substitution for illegal variable M (../input.cpp:553)
Last command: shell bash $MYWORK/common_files/delete_restart.sh
Rank 1321 [Sat Dec 10 20:33:10 2022] [c6-0c2s8n0] application called MPI_Abort(MPI_COMM_WORLD, 1) - process 1321
ERROR on proc 147: Substitution for illegal variable M (../input.cpp:553)
Last command: shell bash $MYWORK/common_files/delete_restart.sh
Rank 766 [Sat Dec 10 20:33:10 2022] [c6-0c2s4n2] application called MPI_Abort(MPI_COMM_WORLD, 1) - process 766
ERROR on proc 195: Substitution for illegal variable M (../input.cpp:553)
Last command: shell bash $MYWORK/common_files/delete_restart.sh
Rank 522 [Sat Dec 10 20:33:10 2022] [c6-0c2s3n0] application called MPI_Abort(MPI_COMM_WORLD, 1) - process 522
ERROR on proc 1692: Substitution for illegal variable M (../input.cpp:553)
Last command: shell bash $MYWORK/common_files/delete_restart.sh
Rank 1722 [Sat Dec 10 20:33:10 2022] [c6-0c2s10n2] application called MPI_Abort(MPI_COMM_WORLD, 1) - process 1722
ERROR on proc 1308: Substitution for illegal variable M (../input.cpp:553)
Last command: shell bash $MYWORK/common_files/delete_restart.sh
Rank 1003 [Sat Dec 10 20:33:10 2022] [c6-0c2s6n0] application called MPI_Abort(MPI_COMM_WORLD, 1) - process 1003
ERROR on proc 580: Substitution for illegal variable M (../input.cpp:553)
Last command: shell bash $MYWORK/common_files/delete_restart.sh
Rank 1966 [Sat Dec 10 20:33:10 2022] [c6-0c2s12n0] application called MPI_Abort(MPI_COMM_WORLD, 1) - process 1966
ERROR on proc 1607: Substitution for illegal variable M (../input.cpp:553)
Last command: shell bash $MYWORK/common_files/delete_restart.sh
Rank 1250 [Sat Dec 10 20:33:10 2022] [c6-0c2s7n2] application called MPI_Abort(MPI_COMM_WORLD, 1) - process 1250
ERROR on proc 2264: Substitution for illegal variable M (../input.cpp:553)
Last command: shell bash $MYWORK/common_files/delete_restart.sh
Rank 2043 [Sat Dec 10 20:33:10 2022] [c6-0c2s12n2] application called MPI_Abort(MPI_COMM_WORLD, 1) - process 2043
ERROR on proc 2433: Substitution for illegal variable M (../input.cpp:553)
Last command: shell bash $MYWORK/common_files/delete_restart.sh
Rank 123 [Sat Dec 10 20:33:10 2022] [c6-0c2s0n2] application called MPI_Abort(MPI_COMM_WORLD, 1) - process 123
ERROR on proc 1142: Substitution for illegal variable M (../input.cpp:553)
Last command: shell bash $MYWORK/common_files/delete_restart.sh
Rank 165 [Sat Dec 10 20:33:10 2022] [c6-0c2s0n3] application called MPI_Abort(MPI_COMM_WORLD, 1) - process 165
ERROR on proc 1382: Substitution for illegal variable M (../input.cpp:553)
Last command: shell bash $MYWORK/common_files/delete_restart.sh
Rank 1286 [Sat Dec 10 20:33:10 2022] [c6-0c2s7n3] application called MPI_Abort(MPI_COMM_WORLD, 1) - process 1286
ERROR on proc 910: Substitution for illegal variable M (../input.cpp:553)
Last command: shell bash $MYWORK/common_files/delete_restart.sh
Rank 2412 [Sat Dec 10 20:33:10 2022] [c6-0c2s14n3] application called MPI_Abort(MPI_COMM_WORLD, 1) - process 2412
ERROR on proc 757: Substitution for illegal variable M (../input.cpp:553)
Last command: shell bash $MYWORK/common_files/delete_restart.sh
Rank 1360 [Sat Dec 10 20:33:10 2022] [c6-0c2s8n1] application called MPI_Abort(MPI_COMM_WORLD, 1) - process 1360
ERROR on proc 1522: Substitution for illegal variable M (../input.cpp:553)
Last command: shell bash $MYWORK/common_files/delete_restart.sh
Rank 725 [Sat Dec 10 20:33:10 2022] [c6-0c2s4n1] application called MPI_Abort(MPI_COMM_WORLD, 1) - process 725
ERROR on proc 2: Substitution for illegal variable M (../input.cpp:553)
Last command: shell bash $MYWORK/common_files/delete_restart.sh
Rank 1522 [Sat Dec 10 20:33:10 2022] [c6-0c2s9n1] application called MPI_Abort(MPI_COMM_WORLD, 1) - process 1522
ERROR on proc 967: Substitution for illegal variable M (../input.cpp:553)
Last command: shell bash $MYWORK/common_files/delete_restart.sh
Rank 962 [Sat Dec 10 20:33:10 2022] [c6-0c2s5n3] application called MPI_Abort(MPI_COMM_WORLD, 1) - process 962
ERROR on proc 1413: Substitution for illegal variable M (../input.cpp:553)
Last command: shell bash $MYWORK/common_files/delete_restart.sh
Rank 1880 [Sat Dec 10 20:33:10 2022] [c6-0c2s11n2] application called MPI_Abort(MPI_COMM_WORLD, 1) - process 1880
ERROR on proc 1665: Substitution for illegal variable M (../input.cpp:553)
Last command: shell bash $MYWORK/common_files/delete_restart.sh
Rank 2204 [Sat Dec 10 20:33:10 2022] [c6-0c2s13n2] application called MPI_Abort(MPI_COMM_WORLD, 1) - process 2204
ERROR on proc 235: Substitution for illegal variable M (../input.cpp:553)
Last command: shell bash $MYWORK/common_files/delete_restart.sh
Rank 2523 [Sat Dec 10 20:33:10 2022] [c6-0c2s15n2] application called MPI_Abort(MPI_COMM_WORLD, 1) - process 2523
ERROR on proc 1892: Substitution for illegal variable M (../input.cpp:553)
Last command: shell bash $MYWORK/common_files/delete_restart.sh
Rank 842 [Sat Dec 10 20:33:10 2022] [c6-0c2s5n0] application called MPI_Abort(MPI_COMM_WORLD, 1) - process 842
ERROR on proc 2219: Substitution for illegal variable M (../input.cpp:553)
Last command: shell bash $MYWORK/common_files/delete_restart.sh
Rank 1080 [Sat Dec 10 20:33:10 2022] [c6-0c2s6n2] application called MPI_Abort(MPI_COMM_WORLD, 1) - process 1080
ERROR on proc 2542: Substitution for illegal variable M (../input.cpp:553)
Last command: shell bash $MYWORK/common_files/delete_restart.sh
Rank 1442 [Sat Dec 10 20:33:10 2022] [c6-0c2s8n3] application called MPI_Abort(MPI_COMM_WORLD, 1) - process 1442
ERROR on proc 2282: Substitution for illegal variable M (../input.cpp:553)
Last command: shell bash $MYWORK/common_files/delete_restart.sh
Rank 85 [Sat Dec 10 20:33:10 2022] [c6-0c2s0n1] application called MPI_Abort(MPI_COMM_WORLD, 1) - process 85
ERROR on proc 1483: Substitution for illegal variable M (../input.cpp:553)
Last command: shell bash $MYWORK/common_files/delete_restart.sh
Rank 2166 [Sat Dec 10 20:33:10 2022] [c6-0c2s13n1] application called MPI_Abort(MPI_COMM_WORLD, 1) - process 2166
ERROR on proc 842: Substitution for illegal variable M (../input.cpp:553)
Last command: shell bash $MYWORK/common_files/delete_restart.sh
Rank 1166 [Sat Dec 10 20:33:10 2022] [c6-0c2s7n0] application called MPI_Abort(MPI_COMM_WORLD, 1) - process 1166
ERROR on proc 1091: Substitution for illegal variable M (../input.cpp:553)
Last command: shell bash $MYWORK/common_files/delete_restart.sh
Rank 2322 [Sat Dec 10 20:33:10 2022] [c6-0c2s14n1] application called MPI_Abort(MPI_COMM_WORLD, 1) - process 2322
ERROR on proc 1443: Substitution for illegal variable M (../input.cpp:553)
Last command: shell bash $MYWORK/common_files/delete_restart.sh
Rank 1762 [Sat Dec 10 20:33:10 2022] [c6-0c2s10n3] application called MPI_Abort(MPI_COMM_WORLD, 1) - process 1762
ERROR on proc 105: Substitution for illegal variable M (../input.cpp:553)
Last command: shell bash $MYWORK/common_files/delete_restart.sh
Rank 483 [Sat Dec 10 20:33:10 2022] [c6-0c2s2n3] application called MPI_Abort(MPI_COMM_WORLD, 1) - process 483
ERROR on proc 2179: Substitution for illegal variable M (../input.cpp:553)
Last command: shell bash $MYWORK/common_files/delete_restart.sh
Rank 2442 [Sat Dec 10 20:33:10 2022] [c6-0c2s15n0] application called MPI_Abort(MPI_COMM_WORLD, 1) - process 2442
ERROR on proc 1183: Substitution for illegal variable M (../input.cpp:553)
Last command: shell bash $MYWORK/common_files/delete_restart.sh
Rank 924 [Sat Dec 10 20:33:10 2022] [c6-0c2s5n2] application called MPI_Abort(MPI_COMM_WORLD, 1) - process 924
ERROR on proc 257: Substitution for illegal variable M (../input.cpp:553)
Last command: shell bash $MYWORK/common_files/delete_restart.sh
Rank 523 [Sat Dec 10 20:33:10 2022] [c6-0c2s3n0] application called MPI_Abort(MPI_COMM_WORLD, 1) - process 523
ERROR on proc 829: Substitution for illegal variable M (../input.cpp:553)
Last command: shell bash $MYWORK/common_files/delete_restart.sh
Rank 1967 [Sat Dec 10 20:33:10 2022] [c6-0c2s12n0] application called MPI_Abort(MPI_COMM_WORLD, 1) - process 1967
ERROR on proc 330: Substitution for illegal variable M (../input.cpp:553)
Last command: shell bash $MYWORK/common_files/delete_restart.sh
Rank 2044 [Sat Dec 10 20:33:10 2022] [c6-0c2s12n2] application called MPI_Abort(MPI_COMM_WORLD, 1) - process 2044
ERROR on proc 2329: Substitution for illegal variable M (../input.cpp:553)
Last command: shell bash $MYWORK/common_files/delete_restart.sh
Rank 564 [Sat Dec 10 20:33:10 2022] [c6-0c2s3n1] application called MPI_Abort(MPI_COMM_WORLD, 1) - process 564
ERROR on proc 1783: Substitution for illegal variable M (../input.cpp:553)
Last command: shell bash $MYWORK/common_files/delete_restart.sh
Rank 1603 [Sat Dec 10 20:33:10 2022] [c6-0c2s9n3] application called MPI_Abort(MPI_COMM_WORLD, 1) - process 1603
ERROR on proc 2006: Substitution for illegal variable M (../input.cpp:553)
Last command: shell bash $MYWORK/common_files/delete_restart.sh
Rank 2243 [Sat Dec 10 20:33:10 2022] [c6-0c2s13n3] application called MPI_Abort(MPI_COMM_WORLD, 1) - process 2243
ERROR on proc 497: Substitution for illegal variable M (../input.cpp:553)
Last command: shell bash $MYWORK/common_files/delete_restart.sh
Rank 641 [Sat Dec 10 20:33:10 2022] [c6-0c2s3n3] application called MPI_Abort(MPI_COMM_WORLD, 1) - process 641
ERROR on proc 2448: Substitution for illegal variable M (../input.cpp:553)
Last command: shell bash $MYWORK/common_files/delete_restart.sh
Rank 1124 [Sat Dec 10 20:33:10 2022] [c6-0c2s6n3] application called MPI_Abort(MPI_COMM_WORLD, 1) - process 1124
ERROR on proc 471: Substitution for illegal variable M (../input.cpp:553)
Last command: shell bash $MYWORK/common_files/delete_restart.sh
Rank 1361 [Sat Dec 10 20:33:10 2022] [c6-0c2s8n1] application called MPI_Abort(MPI_COMM_WORLD, 1) - process 1361
ERROR on proc 694: Substitution for illegal variable M (../input.cpp:553)
Last command: shell bash $MYWORK/common_files/delete_restart.sh
Rank 886 [Sat Dec 10 20:33:10 2022] [c6-0c2s5n1] application called MPI_Abort(MPI_COMM_WORLD, 1) - process 886
ERROR on proc 1337: Substitution for illegal variable M (../input.cpp:553)
Last command: shell bash $MYWORK/common_files/delete_restart.sh
Rank 1400 [Sat Dec 10 20:33:10 2022] [c6-0c2s8n2] application called MPI_Abort(MPI_COMM_WORLD, 1) - process 1400
ERROR on proc 792: Substitution for illegal variable M (../input.cpp:553)
Last command: shell bash $MYWORK/common_files/delete_restart.sh
Rank 1647 [Sat Dec 10 20:33:10 2022] [c6-0c2s10n0] application called MPI_Abort(MPI_COMM_WORLD, 1) - process 1647
ERROR on proc 940: Substitution for illegal variable M (../input.cpp:553)
Last command: shell bash $MYWORK/common_files/delete_restart.sh
Rank 1568 [Sat Dec 10 20:33:10 2022] [c6-0c2s9n2] application called MPI_Abort(MPI_COMM_WORLD, 1) - process 1568
ERROR on proc 532: Substitution for illegal variable M (../input.cpp:553)
Last command: shell bash $MYWORK/common_files/delete_restart.sh
Rank 1480 [Sat Dec 10 20:33:10 2022] [c6-0c2s9n0] application called MPI_Abort(MPI_COMM_WORLD, 1) - process 1480
ERROR on proc 1746: Substitution for illegal variable M (../input.cpp:553)
Last command: shell bash $MYWORK/common_files/delete_restart.sh
Rank 1443 [Sat Dec 10 20:33:10 2022] [c6-0c2s8n3] application called MPI_Abort(MPI_COMM_WORLD, 1) - process 1443
ERROR on proc 1024: Substitution for illegal variable M (../input.cpp:553)
Last command: shell bash $MYWORK/common_files/delete_restart.sh
Rank 2083 [Sat Dec 10 20:33:10 2022] [c6-0c2s12n3] application called MPI_Abort(MPI_COMM_WORLD, 1) - process 2083
ERROR on proc 1983: Substitution for illegal variable M (../input.cpp:553)
Last command: shell bash $MYWORK/common_files/delete_restart.sh
Rank 240 [Sat Dec 10 20:33:10 2022] [c6-0c2s1n1] application called MPI_Abort(MPI_COMM_WORLD, 1) - process 240
ERROR on proc 1812: Substitution for illegal variable M (../input.cpp:553)
Last command: shell bash $MYWORK/common_files/delete_restart.sh
Rank 807 [Sat Dec 10 20:33:10 2022] [c6-0c2s4n3] application called MPI_Abort(MPI_COMM_WORLD, 1) - process 807
ERROR on proc 1241: Substitution for illegal variable M (../input.cpp:553)
Last command: shell bash $MYWORK/common_files/delete_restart.sh
Rank 324 [Sat Dec 10 20:33:10 2022] [c6-0c2s1n3] application called MPI_Abort(MPI_COMM_WORLD, 1) - process 324
ERROR on proc 2043: Substitution for illegal variable M (../input.cpp:553)
Last command: shell bash $MYWORK/common_files/delete_restart.sh
Rank 2000 [Sat Dec 10 20:33:10 2022] [c6-0c2s12n1] application called MPI_Abort(MPI_COMM_WORLD, 1) - process 2000
ERROR on proc 281: Substitution for illegal variable M (../input.cpp:553)
Last command: shell bash $MYWORK/common_files/delete_restart.sh
Rank 681 [Sat Dec 10 20:33:10 2022] [c6-0c2s4n0] application called MPI_Abort(MPI_COMM_WORLD, 1) - process 681
ERROR on proc 149: Substitution for illegal variable M (../input.cpp:553)
Last command: shell bash $MYWORK/common_files/delete_restart.sh
Rank 1322 [Sat Dec 10 20:33:10 2022] [c6-0c2s8n0] application called MPI_Abort(MPI_COMM_WORLD, 1) - process 1322
ERROR on proc 196: Substitution for illegal variable M (../input.cpp:553)
Last command: shell bash $MYWORK/common_files/delete_restart.sh
Rank 767 [Sat Dec 10 20:33:10 2022] [c6-0c2s4n2] application called MPI_Abort(MPI_COMM_WORLD, 1) - process 767
ERROR on proc 1694: Substitution for illegal variable M (../input.cpp:553)
Last command: shell bash $MYWORK/common_files/delete_restart.sh
Rank 1723 [Sat Dec 10 20:33:10 2022] [c6-0c2s10n2] application called MPI_Abort(MPI_COMM_WORLD, 1) - process 1723
ERROR on proc 1316: Substitution for illegal variable M (../input.cpp:553)
Last command: shell bash $MYWORK/common_files/delete_restart.sh
Rank 1004 [Sat Dec 10 20:33:10 2022] [c6-0c2s6n0] application called MPI_Abort(MPI_COMM_WORLD, 1) - process 1004
ERROR on proc 584: Substitution for illegal variable M (../input.cpp:553)
Last command: shell bash $MYWORK/common_files/delete_restart.sh
Rank 1800 [Sat Dec 10 20:33:10 2022] [c6-0c2s11n0] application called MPI_Abort(MPI_COMM_WORLD, 1) - process 1800
ERROR on proc 1608: Substitution for illegal variable M (../input.cpp:553)
Last command: shell bash $MYWORK/common_files/delete_restart.sh
Rank 124 [Sat Dec 10 20:33:10 2022] [c6-0c2s0n2] application called MPI_Abort(MPI_COMM_WORLD, 1) - process 124
ERROR on proc 2265: Substitution for illegal variable M (../input.cpp:553)
Last command: shell bash $MYWORK/common_files/delete_restart.sh
Rank 166 [Sat Dec 10 20:33:10 2022] [c6-0c2s0n3] application called MPI_Abort(MPI_COMM_WORLD, 1) - process 166
ERROR on proc 2401: Substitution for illegal variable M (../input.cpp:553)
Last command: shell bash $MYWORK/common_files/delete_restart.sh
Rank 1680 [Sat Dec 10 20:33:10 2022] [c6-0c2s10n1] application called MPI_Abort(MPI_COMM_WORLD, 1) - process 1680
ERROR on proc 650: Substitution for illegal variable M (../input.cpp:553)
Last command: shell bash $MYWORK/common_files/delete_restart.sh
Rank 1287 [Sat Dec 10 20:33:10 2022] [c6-0c2s7n3] application called MPI_Abort(MPI_COMM_WORLD, 1) - process 1287
ERROR on proc 1143: Substitution for illegal variable M (../input.cpp:553)
Last command: shell bash $MYWORK/common_files/delete_restart.sh
Rank 2413 [Sat Dec 10 20:33:10 2022] [c6-0c2s14n3] application called MPI_Abort(MPI_COMM_WORLD, 1) - process 2413
ERROR on proc 1384: Substitution for illegal variable M (../input.cpp:553)
Last command: shell bash $MYWORK/common_files/delete_restart.sh
Rank 726 [Sat Dec 10 20:33:10 2022] [c6-0c2s4n1] application called MPI_Abort(MPI_COMM_WORLD, 1) - process 726
ERROR on proc 911: Substitution for illegal variable M (../input.cpp:553)
Last command: shell bash $MYWORK/common_files/delete_restart.sh
Rank 1523 [Sat Dec 10 20:33:10 2022] [c6-0c2s9n1] application called MPI_Abort(MPI_COMM_WORLD, 1) - process 1523
ERROR on proc 758: Substitution for illegal variable M (../input.cpp:553)
Last command: shell bash $MYWORK/common_files/delete_restart.sh
Rank 964 [Sat Dec 10 20:33:10 2022] [c6-0c2s5n3] application called MPI_Abort(MPI_COMM_WORLD, 1) - process 964
ERROR on proc 970: Substitution for illegal variable M (../input.cpp:553)
Last command: shell bash $MYWORK/common_files/delete_restart.sh
Rank 2128 [Sat Dec 10 20:33:10 2022] [c6-0c2s13n0] application called MPI_Abort(MPI_COMM_WORLD, 1) - process 2128
ERROR on proc 1414: Substitution for illegal variable M (../input.cpp:553)
Last command: shell bash $MYWORK/common_files/delete_restart.sh
Rank 212 [Sat Dec 10 20:33:10 2022] [c6-0c2s1n0] application called MPI_Abort(MPI_COMM_WORLD, 1) - process 212
ERROR on proc 2153: Substitution for illegal variable M (../input.cpp:553)
Last command: shell bash $MYWORK/common_files/delete_restart.sh
Rank 1881 [Sat Dec 10 20:33:10 2022] [c6-0c2s11n2] application called MPI_Abort(MPI_COMM_WORLD, 1) - process 1881
ERROR on proc 1667: Substitution for illegal variable M (../input.cpp:553)
Last command: shell bash $MYWORK/common_files/delete_restart.sh
Rank 2205 [Sat Dec 10 20:33:10 2022] [c6-0c2s13n2] application called MPI_Abort(MPI_COMM_WORLD, 1) - process 2205
ERROR on proc 200: Substitution for illegal variable M (../input.cpp:553)
Last command: shell bash $MYWORK/common_files/delete_restart.sh
Rank 2524 [Sat Dec 10 20:33:10 2022] [c6-0c2s15n2] application called MPI_Abort(MPI_COMM_WORLD, 1) - process 2524
ERROR on proc 1893: Substitution for illegal variable M (../input.cpp:553)
Last command: shell bash $MYWORK/common_files/delete_restart.sh
Rank 843 [Sat Dec 10 20:33:10 2022] [c6-0c2s5n0] application called MPI_Abort(MPI_COMM_WORLD, 1) - process 843
ERROR on proc 2229: Substitution for illegal variable M (../input.cpp:553)
Last command: shell bash $MYWORK/common_files/delete_restart.sh
Rank 1081 [Sat Dec 10 20:33:10 2022] [c6-0c2s6n2] application called MPI_Abort(MPI_COMM_WORLD, 1) - process 1081
ERROR on proc 2543: Substitution for illegal variable M (../input.cpp:553)
Last command: shell bash $MYWORK/common_files/delete_restart.sh
Rank 86 [Sat Dec 10 20:33:10 2022] [c6-0c2s0n1] application called MPI_Abort(MPI_COMM_WORLD, 1) - process 86
ERROR on proc 2283: Substitution for illegal variable M (../input.cpp:553)
Last command: shell bash $MYWORK/common_files/delete_restart.sh
Rank 2167 [Sat Dec 10 20:33:10 2022] [c6-0c2s13n1] application called MPI_Abort(MPI_COMM_WORLD, 1) - process 2167
ERROR on proc 1576: Substitution for illegal variable M (../input.cpp:553)
Last command: shell bash $MYWORK/common_files/delete_restart.sh
Rank 1167 [Sat Dec 10 20:33:10 2022] [c6-0c2s7n0] application called MPI_Abort(MPI_COMM_WORLD, 1) - process 1167
ERROR on proc 1485: Substitution for illegal variable M (../input.cpp:553)
Last command: shell bash $MYWORK/common_files/delete_restart.sh
Rank 2323 [Sat Dec 10 20:33:10 2022] [c6-0c2s14n1] application called MPI_Abort(MPI_COMM_WORLD, 1) - process 2323
ERROR on proc 850: Substitution for illegal variable M (../input.cpp:553)
Last command: shell bash $MYWORK/common_files/delete_restart.sh
Rank 1763 [Sat Dec 10 20:33:10 2022] [c6-0c2s10n3] application called MPI_Abort(MPI_COMM_WORLD, 1) - process 1763
ERROR on proc 1093: Substitution for illegal variable M (../input.cpp:553)
Last command: shell bash $MYWORK/common_files/delete_restart.sh
Rank 2001 [Sat Dec 10 20:33:10 2022] [c6-0c2s12n1] application called MPI_Abort(MPI_COMM_WORLD, 1) - process 2001
ERROR on proc 107: Substitution for illegal variable M (../input.cpp:553)
Last command: shell bash $MYWORK/common_files/delete_restart.sh
Rank 484 [Sat Dec 10 20:33:10 2022] [c6-0c2s2n3] application called MPI_Abort(MPI_COMM_WORLD, 1) - process 484
ERROR on proc 2096: Substitution for illegal variable M (../input.cpp:553)
Last command: shell bash $MYWORK/common_files/delete_restart.sh
Rank 2443 [Sat Dec 10 20:33:10 2022] [c6-0c2s15n0] application called MPI_Abort(MPI_COMM_WORLD, 1) - process 2443
ERROR on proc 2180: Substitution for illegal variable M (../input.cpp:553)
Last command: shell bash $MYWORK/common_files/delete_restart.sh
Rank 448 [Sat Dec 10 20:33:10 2022] [c6-0c2s2n2] application called MPI_Abort(MPI_COMM_WORLD, 1) - process 448
ERROR on proc 1185: Substitution for illegal variable M (../input.cpp:553)
Last command: shell bash $MYWORK/common_files/delete_restart.sh
Rank 1323 [Sat Dec 10 20:33:10 2022] [c6-0c2s8n0] application called MPI_Abort(MPI_COMM_WORLD, 1) - process 1323
ERROR on proc 258: Substitution for illegal variable M (../input.cpp:553)
Last command: shell bash $MYWORK/common_files/delete_restart.sh
Rank 925 [Sat Dec 10 20:33:10 2022] [c6-0c2s5n2] application called MPI_Abort(MPI_COMM_WORLD, 1) - process 925
ERROR on proc 837: Substitution for illegal variable M (../input.cpp:553)
Last command: shell bash $MYWORK/common_files/delete_restart.sh
Rank 524 [Sat Dec 10 20:33:10 2022] [c6-0c2s3n0] application called MPI_Abort(MPI_COMM_WORLD, 1) - process 524
ERROR on proc 333: Substitution for illegal variable M (../input.cpp:553)
Last command: shell bash $MYWORK/common_files/delete_restart.sh
Rank 2045 [Sat Dec 10 20:33:10 2022] [c6-0c2s12n2] application called MPI_Abort(MPI_COMM_WORLD, 1) - process 2045
ERROR on proc 2331: Substitution for illegal variable M (../input.cpp:553)
Last command: shell bash $MYWORK/common_files/delete_restart.sh
Rank 565 [Sat Dec 10 20:33:10 2022] [c6-0c2s3n1] application called MPI_Abort(MPI_COMM_WORLD, 1) - process 565
ERROR on proc 1788: Substitution for illegal variable M (../input.cpp:553)
Last command: shell bash $MYWORK/common_files/delete_restart.sh
Rank 1604 [Sat Dec 10 20:33:10 2022] [c6-0c2s9n3] application called MPI_Abort(MPI_COMM_WORLD, 1) - process 1604
ERROR on proc 2008: Substitution for illegal variable M (../input.cpp:553)
Last command: shell bash $MYWORK/common_files/delete_restart.sh
Rank 2244 [Sat Dec 10 20:33:10 2022] [c6-0c2s13n3] application called MPI_Abort(MPI_COMM_WORLD, 1) - process 2244
ERROR on proc 503: Substitution for illegal variable M (../input.cpp:553)
Last command: shell bash $MYWORK/common_files/delete_restart.sh
Rank 642 [Sat Dec 10 20:33:10 2022] [c6-0c2s3n3] application called MPI_Abort(MPI_COMM_WORLD, 1) - process 642
ERROR on proc 2453: Substitution for illegal variable M (../input.cpp:553)
Last command: shell bash $MYWORK/common_files/delete_restart.sh
Rank 1125 [Sat Dec 10 20:33:10 2022] [c6-0c2s6n3] application called MPI_Abort(MPI_COMM_WORLD, 1) - process 1125
ERROR on proc 472: Substitution for illegal variable M (../input.cpp:553)
Last command: shell bash $MYWORK/common_files/delete_restart.sh
Rank 1362 [Sat Dec 10 20:33:10 2022] [c6-0c2s8n1] application called MPI_Abort(MPI_COMM_WORLD, 1) - process 1362
ERROR on proc 695: Substitution for illegal variable M (../input.cpp:553)
Last command: shell bash $MYWORK/common_files/delete_restart.sh
Rank 887 [Sat Dec 10 20:33:10 2022] [c6-0c2s5n1] application called MPI_Abort(MPI_COMM_WORLD, 1) - process 887
ERROR on proc 1341: Substitution for illegal variable M (../input.cpp:553)
Last command: shell bash $MYWORK/common_files/delete_restart.sh
Rank 1401 [Sat Dec 10 20:33:10 2022] [c6-0c2s8n2] application called MPI_Abort(MPI_COMM_WORLD, 1) - process 1401
ERROR on proc 794: Substitution for illegal variable M (../input.cpp:553)
Last command: shell bash $MYWORK/common_files/delete_restart.sh
Rank 1648 [Sat Dec 10 20:33:10 2022] [c6-0c2s10n0] application called MPI_Abort(MPI_COMM_WORLD, 1) - process 1648
ERROR on proc 941: Substitution for illegal variable M (../input.cpp:553)
Last command: shell bash $MYWORK/common_files/delete_restart.sh
Rank 1569 [Sat Dec 10 20:33:10 2022] [c6-0c2s9n2] application called MPI_Abort(MPI_COMM_WORLD, 1) - process 1569
ERROR on proc 533: Substitution for illegal variable M (../input.cpp:553)
Last command: shell bash $MYWORK/common_files/delete_restart.sh
Rank 1481 [Sat Dec 10 20:33:10 2022] [c6-0c2s9n0] application called MPI_Abort(MPI_COMM_WORLD, 1) - process 1481
ERROR on proc 1749: Substitution for illegal variable M (../input.cpp:553)
Last command: shell bash $MYWORK/common_files/delete_restart.sh
Rank 1444 [Sat Dec 10 20:33:10 2022] [c6-0c2s8n3] application called MPI_Abort(MPI_COMM_WORLD, 1) - process 1444
ERROR on proc 1029: Substitution for illegal variable M (../input.cpp:553)
Last command: shell bash $MYWORK/common_files/delete_restart.sh
Rank 87 [Sat Dec 10 20:33:10 2022] [c6-0c2s0n1] application called MPI_Abort(MPI_COMM_WORLD, 1) - process 87
ERROR on proc 1984: Substitution for illegal variable M (../input.cpp:553)
Last command: shell bash $MYWORK/common_files/delete_restart.sh
Rank 2084 [Sat Dec 10 20:33:10 2022] [c6-0c2s12n3] application called MPI_Abort(MPI_COMM_WORLD, 1) - process 2084
ERROR on proc 1814: Substitution for illegal variable M (../input.cpp:553)
Last command: shell bash $MYWORK/common_files/delete_restart.sh
Rank 2168 [Sat Dec 10 20:33:10 2022] [c6-0c2s13n1] application called MPI_Abort(MPI_COMM_WORLD, 1) - process 2168
ERROR on proc 2044: Substitution for illegal variable M (../input.cpp:553)
Last command: shell bash $MYWORK/common_files/delete_restart.sh
Rank 241 [Sat Dec 10 20:33:10 2022] [c6-0c2s1n1] application called MPI_Abort(MPI_COMM_WORLD, 1) - process 241
ERROR on proc 282: Substitution for illegal variable M (../input.cpp:553)
Last command: shell bash $MYWORK/common_files/delete_restart.sh
Rank 325 [Sat Dec 10 20:33:10 2022] [c6-0c2s1n3] application called MPI_Abort(MPI_COMM_WORLD, 1) - process 325
ERROR on proc 150: Substitution for illegal variable M (../input.cpp:553)
Last command: shell bash $MYWORK/common_files/delete_restart.sh
Rank 2324 [Sat Dec 10 20:33:10 2022] [c6-0c2s14n1] application called MPI_Abort(MPI_COMM_WORLD, 1) - process 2324
ERROR on proc 199: Substitution for illegal variable M (../input.cpp:553)
Last command: shell bash $MYWORK/common_files/delete_restart.sh
Rank 2002 [Sat Dec 10 20:33:10 2022] [c6-0c2s12n1] application called MPI_Abort(MPI_COMM_WORLD, 1) - process 2002
ERROR on proc 1695: Substitution for illegal variable M (../input.cpp:553)
Last command: shell bash $MYWORK/common_files/delete_restart.sh
Rank 2444 [Sat Dec 10 20:33:10 2022] [c6-0c2s15n0] application called MPI_Abort(MPI_COMM_WORLD, 1) - process 2444
ERROR on proc 1280: Substitution for illegal variable M (../input.cpp:553)
Last command: shell bash $MYWORK/common_files/delete_restart.sh
Rank 682 [Sat Dec 10 20:33:10 2022] [c6-0c2s4n0] application called MPI_Abort(MPI_COMM_WORLD, 1) - process 682
ERROR on proc 586: Substitution for illegal variable M (../input.cpp:553)
Last command: shell bash $MYWORK/common_files/delete_restart.sh
Rank 768 [Sat Dec 10 20:33:10 2022] [c6-0c2s4n2] application called MPI_Abort(MPI_COMM_WORLD, 1) - process 768
ERROR on proc 1622: Substitution for illegal variable M (../input.cpp:553)
Last command: shell bash $MYWORK/common_files/delete_restart.sh
Rank 1724 [Sat Dec 10 20:33:10 2022] [c6-0c2s10n2] application called MPI_Abort(MPI_COMM_WORLD, 1) - process 1724
ERROR on proc 2271: Substitution for illegal variable M (../input.cpp:553)
Last command: shell bash $MYWORK/common_files/delete_restart.sh
Rank 1005 [Sat Dec 10 20:33:10 2022] [c6-0c2s6n0] application called MPI_Abort(MPI_COMM_WORLD, 1) - process 1005
ERROR on proc 2402: Substitution for illegal variable M (../input.cpp:553)
Last command: shell bash $MYWORK/common_files/delete_restart.sh
Rank 1969 [Sat Dec 10 20:33:10 2022] [c6-0c2s12n0] application called MPI_Abort(MPI_COMM_WORLD, 1) - process 1969
ERROR on proc 653: Substitution for illegal variable M (../input.cpp:553)
Last command: shell bash $MYWORK/common_files/delete_restart.sh
Rank 1801 [Sat Dec 10 20:33:10 2022] [c6-0c2s11n0] application called MPI_Abort(MPI_COMM_WORLD, 1) - process 1801
ERROR on proc 1148: Substitution for illegal variable M (../input.cpp:553)
Last command: shell bash $MYWORK/common_files/delete_restart.sh
Rank 125 [Sat Dec 10 20:33:10 2022] [c6-0c2s0n2] application called MPI_Abort(MPI_COMM_WORLD, 1) - process 125
ERROR on proc 1385: Substitution for illegal variable M (../input.cpp:553)
Last command: shell bash $MYWORK/common_files/delete_restart.sh
Rank 167 [Sat Dec 10 20:33:10 2022] [c6-0c2s0n3] application called MPI_Abort(MPI_COMM_WORLD, 1) - process 167
ERROR on proc 912: Substitution for illegal variable M (../input.cpp:553)
Last command: shell bash $MYWORK/common_files/delete_restart.sh
Rank 1681 [Sat Dec 10 20:33:10 2022] [c6-0c2s10n1] application called MPI_Abort(MPI_COMM_WORLD, 1) - process 1681
ERROR on proc 759: Substitution for illegal variable M (../input.cpp:553)
Last command: shell bash $MYWORK/common_files/delete_restart.sh
Rank 1288 [Sat Dec 10 20:33:10 2022] [c6-0c2s7n3] application called MPI_Abort(MPI_COMM_WORLD, 1) - process 1288
ERROR on proc 1526: Substitution for illegal variable M (../input.cpp:553)
Last command: shell bash $MYWORK/common_files/delete_restart.sh
Rank 1605 [Sat Dec 10 20:33:10 2022] [c6-0c2s9n3] application called MPI_Abort(MPI_COMM_WORLD, 1) - process 1605
ERROR on proc 3: Substitution for illegal variable M (../input.cpp:553)
Last command: shell bash $MYWORK/common_files/delete_restart.sh
Rank 2415 [Sat Dec 10 20:33:10 2022] [c6-0c2s14n3] application called MPI_Abort(MPI_COMM_WORLD, 1) - process 2415
ERROR on proc 973: Substitution for illegal variable M (../input.cpp:553)
Last command: shell bash $MYWORK/common_files/delete_restart.sh
Rank 727 [Sat Dec 10 20:33:10 2022] [c6-0c2s4n1] application called MPI_Abort(MPI_COMM_WORLD, 1) - process 727
ERROR on proc 1416: Substitution for illegal variable M (../input.cpp:553)
Last command: shell bash $MYWORK/common_files/delete_restart.sh
Rank 1524 [Sat Dec 10 20:33:10 2022] [c6-0c2s9n1] application called MPI_Abort(MPI_COMM_WORLD, 1) - process 1524
ERROR on proc 2159: Substitution for illegal variable M (../input.cpp:553)
Last command: shell bash $MYWORK/common_files/delete_restart.sh
Rank 16 [Sat Dec 10 20:33:10 2022] [c6-0c1s15n3] application called MPI_Abort(MPI_COMM_WORLD, 1) - process 16
ERROR on proc 1674: Substitution for illegal variable M (../input.cpp:553)
Last command: shell bash $MYWORK/common_files/delete_restart.sh
Rank 2129 [Sat Dec 10 20:33:10 2022] [c6-0c2s13n0] application called MPI_Abort(MPI_COMM_WORLD, 1) - process 2129
ERROR on proc 201: Substitution for illegal variable M (../input.cpp:553)
Last command: shell bash $MYWORK/common_files/delete_restart.sh
Rank 1649 [Sat Dec 10 20:33:10 2022] [c6-0c2s10n0] application called MPI_Abort(MPI_COMM_WORLD, 1) - process 1649
ERROR on proc 1894: Substitution for illegal variable M (../input.cpp:553)
Last command: shell bash $MYWORK/common_files/delete_restart.sh
Rank 213 [Sat Dec 10 20:33:10 2022] [c6-0c2s1n0] application called MPI_Abort(MPI_COMM_WORLD, 1) - process 213
ERROR on proc 2235: Substitution for illegal variable M (../input.cpp:553)
Last command: shell bash $MYWORK/common_files/delete_restart.sh
Rank 1882 [Sat Dec 10 20:33:10 2022] [c6-0c2s11n2] application called MPI_Abort(MPI_COMM_WORLD, 1) - process 1882
ERROR on proc 2545: Substitution for illegal variable M (../input.cpp:553)
Last command: shell bash $MYWORK/common_files/delete_restart.sh
Rank 2206 [Sat Dec 10 20:33:10 2022] [c6-0c2s13n2] application called MPI_Abort(MPI_COMM_WORLD, 1) - process 2206
ERROR on proc 2284: Substitution for illegal variable M (../input.cpp:553)
Last command: shell bash $MYWORK/common_files/delete_restart.sh
Rank 2525 [Sat Dec 10 20:33:10 2022] [c6-0c2s15n2] application called MPI_Abort(MPI_COMM_WORLD, 1) - process 2525
ERROR on proc 1560: Substitution for illegal variable M (../input.cpp:553)
Last command: shell bash $MYWORK/common_files/delete_restart.sh
Rank 1570 [Sat Dec 10 20:33:10 2022] [c6-0c2s9n2] application called MPI_Abort(MPI_COMM_WORLD, 1) - process 1570
ERROR on proc 1487: Substitution for illegal variable M (../input.cpp:553)
Last command: shell bash $MYWORK/common_files/delete_restart.sh
Rank 844 [Sat Dec 10 20:33:10 2022] [c6-0c2s5n0] application called MPI_Abort(MPI_COMM_WORLD, 1) - process 844
ERROR on proc 851: Substitution for illegal variable M (../input.cpp:553)
Last command: shell bash $MYWORK/common_files/delete_restart.sh
Rank 1082 [Sat Dec 10 20:33:10 2022] [c6-0c2s6n2] application called MPI_Abort(MPI_COMM_WORLD, 1) - process 1082
ERROR on proc 1095: Substitution for illegal variable M (../input.cpp:553)
Last command: shell bash $MYWORK/common_files/delete_restart.sh
Rank 2085 [Sat Dec 10 20:33:10 2022] [c6-0c2s12n3] application called MPI_Abort(MPI_COMM_WORLD, 1) - process 2085
ERROR on proc 1451: Substitution for illegal variable M (../input.cpp:553)
Last command: shell bash $MYWORK/common_files/delete_restart.sh
Rank 1168 [Sat Dec 10 20:33:10 2022] [c6-0c2s7n0] application called MPI_Abort(MPI_COMM_WORLD, 1) - process 1168
ERROR on proc 117: Substitution for illegal variable M (../input.cpp:553)
Last command: shell bash $MYWORK/common_files/delete_restart.sh
Rank 1764 [Sat Dec 10 20:33:10 2022] [c6-0c2s10n3] application called MPI_Abort(MPI_COMM_WORLD, 1) - process 1764
ERROR on proc 2100: Substitution for illegal variable M (../input.cpp:553)
Last command: shell bash $MYWORK/common_files/delete_restart.sh
Rank 485 [Sat Dec 10 20:33:10 2022] [c6-0c2s2n3] application called MPI_Abort(MPI_COMM_WORLD, 1) - process 485
ERROR on proc 1186: Substitution for illegal variable M (../input.cpp:553)
Last command: shell bash $MYWORK/common_files/delete_restart.sh
Rank 2445 [Sat Dec 10 20:33:10 2022] [c6-0c2s15n0] application called MPI_Abort(MPI_COMM_WORLD, 1) - process 2445
ERROR on proc 259: Substitution for illegal variable M (../input.cpp:553)
Last command: shell bash $MYWORK/common_files/delete_restart.sh
Rank 449 [Sat Dec 10 20:33:10 2022] [c6-0c2s2n2] application called MPI_Abort(MPI_COMM_WORLD, 1) - process 449
ERROR on proc 800: Substitution for illegal variable M (../input.cpp:553)
Last command: shell bash $MYWORK/common_files/delete_restart.sh
Rank 1324 [Sat Dec 10 20:33:10 2022] [c6-0c2s8n0] application called MPI_Abort(MPI_COMM_WORLD, 1) - process 1324
ERROR on proc 336: Substitution for illegal variable M (../input.cpp:553)
Last command: shell bash $MYWORK/common_files/delete_restart.sh
Rank 926 [Sat Dec 10 20:33:10 2022] [c6-0c2s5n2] application called MPI_Abort(MPI_COMM_WORLD, 1) - process 926
ERROR on proc 2335: Substitution for illegal variable M (../input.cpp:553)
Last command: shell bash $MYWORK/common_files/delete_restart.sh
Rank 525 [Sat Dec 10 20:33:10 2022] [c6-0c2s3n0] application called MPI_Abort(MPI_COMM_WORLD, 1) - process 525
ERROR on proc 1789: Substitution for illegal variable M (../input.cpp:553)
Last command: shell bash $MYWORK/common_files/delete_restart.sh
Rank 1006 [Sat Dec 10 20:33:10 2022] [c6-0c2s6n0] application called MPI_Abort(MPI_COMM_WORLD, 1) - process 1006
ERROR on proc 2011: Substitution for illegal variable M (../input.cpp:553)
Last command: shell bash $MYWORK/common_files/delete_restart.sh
Rank 1254 [Sat Dec 10 20:33:10 2022] [c6-0c2s7n2] application called MPI_Abort(MPI_COMM_WORLD, 1) - process 1254
ERROR on proc 507: Substitution for illegal variable M (../input.cpp:553)
Last command: shell bash $MYWORK/common_files/delete_restart.sh
Rank 2046 [Sat Dec 10 20:33:10 2022] [c6-0c2s12n2] application called MPI_Abort(MPI_COMM_WORLD, 1) - process 2046
ERROR on proc 2459: Substitution for illegal variable M (../input.cpp:553)
Last command: shell bash $MYWORK/common_files/delete_restart.sh
Rank 566 [Sat Dec 10 20:33:10 2022] [c6-0c2s3n1] application called MPI_Abort(MPI_COMM_WORLD, 1) - process 566
ERROR on proc 473: Substitution for illegal variable M (../input.cpp:553)
Last command: shell bash $MYWORK/common_files/delete_restart.sh
Rank 2245 [Sat Dec 10 20:33:10 2022] [c6-0c2s13n3] application called MPI_Abort(MPI_COMM_WORLD, 1) - process 2245
ERROR on proc 704: Substitution for illegal variable M (../input.cpp:553)
Last command: shell bash $MYWORK/common_files/delete_restart.sh
Rank 643 [Sat Dec 10 20:33:10 2022] [c6-0c2s3n3] application called MPI_Abort(MPI_COMM_WORLD, 1) - process 643
ERROR on proc 1345: Substitution for illegal variable M (../input.cpp:553)
Last command: shell bash $MYWORK/common_files/delete_restart.sh
Rank 1126 [Sat Dec 10 20:33:10 2022] [c6-0c2s6n3] application called MPI_Abort(MPI_COMM_WORLD, 1) - process 1126
ERROR on proc 797: Substitution for illegal variable M (../input.cpp:553)
Last command: shell bash $MYWORK/common_files/delete_restart.sh
Rank 1363 [Sat Dec 10 20:33:10 2022] [c6-0c2s8n1] application called MPI_Abort(MPI_COMM_WORLD, 1) - process 1363
ERROR on proc 947: Substitution for illegal variable M (../input.cpp:553)
Last command: shell bash $MYWORK/common_files/delete_restart.sh
[...]
ERROR on proc 2502: Substitution for illegal variable M (../input.cpp:553)
Last command: shell bash $MYWORK/common_files/delete_restart.sh
Rank 2484 [Sat Dec 10 20:33:10 2022] [c6-0c2s15n1] application called MPI_Abort(MPI_COMM_WORLD, 1) - process 2484
ERROR on proc 2383: Substitution for illegal variable M (../input.cpp:553)
Last command: shell bash $MYWORK/common_files/delete_restart.sh
Rank 2485 [Sat Dec 10 20:33:10 2022] [c6-0c2s15n1] application called MPI_Abort(MPI_COMM_WORLD, 1) - process 2485
ERROR on proc 2384: Substitution for illegal variable M (../input.cpp:553)
Last command: shell bash $MYWORK/common_files/delete_restart.sh
Rank 1223 [Sat Dec 10 20:33:10 2022] [c6-0c2s7n1] application called MPI_Abort(MPI_COMM_WORLD, 1) - process 1223
ERROR on proc 2503: Substitution for illegal variable M (../input.cpp:553)
Last command: shell bash $MYWORK/common_files/delete_restart.sh
Rank 2367 [Sat Dec 10 20:33:10 2022] [c6-0c2s14n2] application called MPI_Abort(MPI_COMM_WORLD, 1) - process 2367
ERROR on proc 1211: Substitution for illegal variable M (../input.cpp:553)
Last command: shell bash $MYWORK/common_files/delete_restart.sh
Rank 2489 [Sat Dec 10 20:33:10 2022] [c6-0c2s15n1] application called MPI_Abort(MPI_COMM_WORLD, 1) - process 2489
ERROR on proc 2386: Substitution for illegal variable M (../input.cpp:553)
Last command: shell bash $MYWORK/common_files/delete_restart.sh
Rank 1224 [Sat Dec 10 20:33:10 2022] [c6-0c2s7n1] application called MPI_Abort(MPI_COMM_WORLD, 1) - process 1224
ERROR on proc 2504: Substitution for illegal variable M (../input.cpp:553)
Last command: shell bash $MYWORK/common_files/delete_restart.sh
Rank 2491 [Sat Dec 10 20:33:10 2022] [c6-0c2s15n1] application called MPI_Abort(MPI_COMM_WORLD, 1) - process 2491
ERROR on proc 2388: Substitution for illegal variable M (../input.cpp:553)
Last command: shell bash $MYWORK/common_files/delete_restart.sh
Rank 1225 [Sat Dec 10 20:33:10 2022] [c6-0c2s7n1] application called MPI_Abort(MPI_COMM_WORLD, 1) - process 1225
ERROR on proc 2505: Substitution for illegal variable M (../input.cpp:553)
Last command: shell bash $MYWORK/common_files/delete_restart.sh
Rank 2368 [Sat Dec 10 20:33:10 2022] [c6-0c2s14n2] application called MPI_Abort(MPI_COMM_WORLD, 1) - process 2368
ERROR on proc 1212: Substitution for illegal variable M (../input.cpp:553)
Last command: shell bash $MYWORK/common_files/delete_restart.sh
Rank 2493 [Sat Dec 10 20:33:10 2022] [c6-0c2s15n1] application called MPI_Abort(MPI_COMM_WORLD, 1) - process 2493
ERROR on proc 2389: Substitution for illegal variable M (../input.cpp:553)
Last command: shell bash $MYWORK/common_files/delete_restart.sh
Rank 2494 [Sat Dec 10 20:33:10 2022] [c6-0c2s15n1] application called MPI_Abort(MPI_COMM_WORLD, 1) - process 2494
ERROR on proc 2390: Substitution for illegal variable M (../input.cpp:553)
Last command: shell bash $MYWORK/common_files/delete_restart.sh
Rank 1226 [Sat Dec 10 20:33:10 2022] [c6-0c2s7n1] application called MPI_Abort(MPI_COMM_WORLD, 1) - process 1226
ERROR on proc 2507: Substitution for illegal variable M (../input.cpp:553)
Last command: shell bash $MYWORK/common_files/delete_restart.sh
Rank 2369 [Sat Dec 10 20:33:10 2022] [c6-0c2s14n2] application called MPI_Abort(MPI_COMM_WORLD, 1) - process 2369
ERROR on proc 2391: Substitution for illegal variable M (../input.cpp:553)
Last command: shell bash $MYWORK/common_files/delete_restart.sh
Rank 2495 [Sat Dec 10 20:33:10 2022] [c6-0c2s15n1] application called MPI_Abort(MPI_COMM_WORLD, 1) - process 2495
ERROR on proc 1214: Substitution for illegal variable M (../input.cpp:553)
Last command: shell bash $MYWORK/common_files/delete_restart.sh
Rank 2498 [Sat Dec 10 20:33:10 2022] [c6-0c2s15n1] application called MPI_Abort(MPI_COMM_WORLD, 1) - process 2498
ERROR on proc 2392: Substitution for illegal variable M (../input.cpp:553)
Last command: shell bash $MYWORK/common_files/delete_restart.sh
Rank 1227 [Sat Dec 10 20:33:10 2022] [c6-0c2s7n1] application called MPI_Abort(MPI_COMM_WORLD, 1) - process 1227
ERROR on proc 2508: Substitution for illegal variable M (../input.cpp:553)
Last command: shell bash $MYWORK/common_files/delete_restart.sh
Rank 2370 [Sat Dec 10 20:33:10 2022] [c6-0c2s14n2] application called MPI_Abort(MPI_COMM_WORLD, 1) - process 2370
ERROR on proc 2394: Substitution for illegal variable M (../input.cpp:553)
Last command: shell bash $MYWORK/common_files/delete_restart.sh
Rank 2499 [Sat Dec 10 20:33:10 2022] [c6-0c2s15n1] application called MPI_Abort(MPI_COMM_WORLD, 1) - process 2499
ERROR on proc 1215: Substitution for illegal variable M (../input.cpp:553)
Last command: shell bash $MYWORK/common_files/delete_restart.sh
Rank 1228 [Sat Dec 10 20:33:10 2022] [c6-0c2s7n1] application called MPI_Abort(MPI_COMM_WORLD, 1) - process 1228
ERROR on proc 2395: Substitution for illegal variable M (../input.cpp:553)
Last command: shell bash $MYWORK/common_files/delete_restart.sh
Rank 2371 [Sat Dec 10 20:33:10 2022] [c6-0c2s14n2] application called MPI_Abort(MPI_COMM_WORLD, 1) - process 2371
ERROR on proc 2511: Substitution for illegal variable M (../input.cpp:553)
Last command: shell bash $MYWORK/common_files/delete_restart.sh
Rank 2500 [Sat Dec 10 20:33:10 2022] [c6-0c2s15n1] application called MPI_Abort(MPI_COMM_WORLD, 1) - process 2500
ERROR on proc 2397: Substitution for illegal variable M (../input.cpp:553)
Last command: shell bash $MYWORK/common_files/delete_restart.sh
Rank 2503 [Sat Dec 10 20:33:10 2022] [c6-0c2s15n1] application called MPI_Abort(MPI_COMM_WORLD, 1) - process 2503
ERROR on proc 2512: Substitution for illegal variable M (../input.cpp:553)
Last command: shell bash $MYWORK/common_files/delete_restart.sh
Rank 1229 [Sat Dec 10 20:33:10 2022] [c6-0c2s7n1] application called MPI_Abort(MPI_COMM_WORLD, 1) - process 1229
ERROR on proc 2360: Substitution for illegal variable M (../input.cpp:553)
Last command: shell bash $MYWORK/common_files/delete_restart.sh
Rank 2372 [Sat Dec 10 20:33:10 2022] [c6-0c2s14n2] application called MPI_Abort(MPI_COMM_WORLD, 1) - process 2372
ERROR on proc 1217: Substitution for illegal variable M (../input.cpp:553)
Last command: shell bash $MYWORK/common_files/delete_restart.sh
Rank 2504 [Sat Dec 10 20:33:10 2022] [c6-0c2s15n1] application called MPI_Abort(MPI_COMM_WORLD, 1) - process 2504
ERROR on proc 2513: Substitution for illegal variable M (../input.cpp:553)
Last command: shell bash $MYWORK/common_files/delete_restart.sh
Rank 2505 [Sat Dec 10 20:33:10 2022] [c6-0c2s15n1] application called MPI_Abort(MPI_COMM_WORLD, 1) - process 2505
ERROR on proc 2361: Substitution for illegal variable M (../input.cpp:553)
Last command: shell bash $MYWORK/common_files/delete_restart.sh
Rank 1230 [Sat Dec 10 20:33:10 2022] [c6-0c2s7n1] application called MPI_Abort(MPI_COMM_WORLD, 1) - process 1230
ERROR on proc 1218: Substitution for illegal variable M (../input.cpp:553)
Last command: shell bash $MYWORK/common_files/delete_restart.sh
Rank 2373 [Sat Dec 10 20:33:10 2022] [c6-0c2s14n2] application called MPI_Abort(MPI_COMM_WORLD, 1) - process 2373
ERROR on proc 2515: Substitution for illegal variable M (../input.cpp:553)
Last command: shell bash $MYWORK/common_files/delete_restart.sh
Rank 2508 [Sat Dec 10 20:33:10 2022] [c6-0c2s15n1] application called MPI_Abort(MPI_COMM_WORLD, 1) - process 2508
ERROR on proc 2516: Substitution for illegal variable M (../input.cpp:553)
Last command: shell bash $MYWORK/common_files/delete_restart.sh
Rank 1231 [Sat Dec 10 20:33:10 2022] [c6-0c2s7n1] application called MPI_Abort(MPI_COMM_WORLD, 1) - process 1231
ERROR on proc 1219: Substitution for illegal variable M (../input.cpp:553)
Last command: shell bash $MYWORK/common_files/delete_restart.sh
Rank 2510 [Sat Dec 10 20:33:10 2022] [c6-0c2s15n1] application called MPI_Abort(MPI_COMM_WORLD, 1) - process 2510
ERROR on proc 2363: Substitution for illegal variable M (../input.cpp:553)
Last command: shell bash $MYWORK/common_files/delete_restart.sh
Rank 2374 [Sat Dec 10 20:33:10 2022] [c6-0c2s14n2] application called MPI_Abort(MPI_COMM_WORLD, 1) - process 2374
ERROR on proc 2517: Substitution for illegal variable M (../input.cpp:553)
Last command: shell bash $MYWORK/common_files/delete_restart.sh
Rank 2511 [Sat Dec 10 20:33:10 2022] [c6-0c2s15n1] application called MPI_Abort(MPI_COMM_WORLD, 1) - process 2511
ERROR on proc 2364: Substitution for illegal variable M (../input.cpp:553)
Last command: shell bash $MYWORK/common_files/delete_restart.sh
Rank 1232 [Sat Dec 10 20:33:10 2022] [c6-0c2s7n1] application called MPI_Abort(MPI_COMM_WORLD, 1) - process 1232
ERROR on proc 1221: Substitution for illegal variable M (../input.cpp:553)
Last command: shell bash $MYWORK/common_files/delete_restart.sh
Rank 2375 [Sat Dec 10 20:33:10 2022] [c6-0c2s14n2] application called MPI_Abort(MPI_COMM_WORLD, 1) - process 2375
ERROR on proc 2519: Substitution for illegal variable M (../input.cpp:553)
Last command: shell bash $MYWORK/common_files/delete_restart.sh
Rank 2514 [Sat Dec 10 20:33:10 2022] [c6-0c2s15n1] application called MPI_Abort(MPI_COMM_WORLD, 1) - process 2514
ERROR on proc 2365: Substitution for illegal variable M (../input.cpp:553)
Last command: shell bash $MYWORK/common_files/delete_restart.sh
Rank 1233 [Sat Dec 10 20:33:10 2022] [c6-0c2s7n1] application called MPI_Abort(MPI_COMM_WORLD, 1) - process 1233
ERROR on proc 1222: Substitution for illegal variable M (../input.cpp:553)
Last command: shell bash $MYWORK/common_files/delete_restart.sh
Rank 2515 [Sat Dec 10 20:33:10 2022] [c6-0c2s15n1] application called MPI_Abort(MPI_COMM_WORLD, 1) - process 2515
ERROR on proc 1223: Substitution for illegal variable M (../input.cpp:553)
Last command: shell bash $MYWORK/common_files/delete_restart.sh
Rank 2376 [Sat Dec 10 20:33:10 2022] [c6-0c2s14n2] application called MPI_Abort(MPI_COMM_WORLD, 1) - process 2376
ERROR on proc 2367: Substitution for illegal variable M (../input.cpp:553)
Last command: shell bash $MYWORK/common_files/delete_restart.sh
Rank 2517 [Sat Dec 10 20:33:10 2022] [c6-0c2s15n1] application called MPI_Abort(MPI_COMM_WORLD, 1) - process 2517
ERROR on proc 2368: Substitution for illegal variable M (../input.cpp:553)
Last command: shell bash $MYWORK/common_files/delete_restart.sh
Rank 1234 [Sat Dec 10 20:33:10 2022] [c6-0c2s7n1] application called MPI_Abort(MPI_COMM_WORLD, 1) - process 1234
ERROR on proc 1226: Substitution for illegal variable M (../input.cpp:553)
Last command: shell bash $MYWORK/common_files/delete_restart.sh
Rank 2519 [Sat Dec 10 20:33:10 2022] [c6-0c2s15n1] application called MPI_Abort(MPI_COMM_WORLD, 1) - process 2519
ERROR on proc 2369: Substitution for illegal variable M (../input.cpp:553)
Last command: shell bash $MYWORK/common_files/delete_restart.sh
Rank 2377 [Sat Dec 10 20:33:10 2022] [c6-0c2s14n2] application called MPI_Abort(MPI_COMM_WORLD, 1) - process 2377
ERROR on proc 1227: Substitution for illegal variable M (../input.cpp:553)
Last command: shell bash $MYWORK/common_files/delete_restart.sh
Rank 1235 [Sat Dec 10 20:33:10 2022] [c6-0c2s7n1] application called MPI_Abort(MPI_COMM_WORLD, 1) - process 1235
ERROR on proc 2370: Substitution for illegal variable M (../input.cpp:553)
Last command: shell bash $MYWORK/common_files/delete_restart.sh
Rank 2378 [Sat Dec 10 20:33:10 2022] [c6-0c2s14n2] application called MPI_Abort(MPI_COMM_WORLD, 1) - process 2378
ERROR on proc 1229: Substitution for illegal variable M (../input.cpp:553)
Last command: shell bash $MYWORK/common_files/delete_restart.sh
Rank 1236 [Sat Dec 10 20:33:10 2022] [c6-0c2s7n1] application called MPI_Abort(MPI_COMM_WORLD, 1) - process 1236
ERROR on proc 2372: Substitution for illegal variable M (../input.cpp:553)
Last command: shell bash $MYWORK/common_files/delete_restart.sh
Rank 2379 [Sat Dec 10 20:33:10 2022] [c6-0c2s14n2] application called MPI_Abort(MPI_COMM_WORLD, 1) - process 2379
ERROR on proc 1230: Substitution for illegal variable M (../input.cpp:553)
Last command: shell bash $MYWORK/common_files/delete_restart.sh
Rank 2380 [Sat Dec 10 20:33:10 2022] [c6-0c2s14n2] application called MPI_Abort(MPI_COMM_WORLD, 1) - process 2380
ERROR on proc 2373: Substitution for illegal variable M (../input.cpp:553)
Last command: shell bash $MYWORK/common_files/delete_restart.sh
Rank 1237 [Sat Dec 10 20:33:10 2022] [c6-0c2s7n1] application called MPI_Abort(MPI_COMM_WORLD, 1) - process 1237
ERROR on proc 2374: Substitution for illegal variable M (../input.cpp:553)
Last command: shell bash $MYWORK/common_files/delete_restart.sh
Rank 1238 [Sat Dec 10 20:33:10 2022] [c6-0c2s7n1] application called MPI_Abort(MPI_COMM_WORLD, 1) - process 1238
ERROR on proc 1232: Substitution for illegal variable M (../input.cpp:553)
Last command: shell bash $MYWORK/common_files/delete_restart.sh
Rank 2381 [Sat Dec 10 20:33:10 2022] [c6-0c2s14n2] application called MPI_Abort(MPI_COMM_WORLD, 1) - process 2381
ERROR on proc 2376: Substitution for illegal variable M (../input.cpp:553)
Last command: shell bash $MYWORK/common_files/delete_restart.sh
Rank 2382 [Sat Dec 10 20:33:10 2022] [c6-0c2s14n2] application called MPI_Abort(MPI_COMM_WORLD, 1) - process 2382
ERROR on proc 1234: Substitution for illegal variable M (../input.cpp:553)
Last command: shell bash $MYWORK/common_files/delete_restart.sh
Rank 1239 [Sat Dec 10 20:33:10 2022] [c6-0c2s7n1] application called MPI_Abort(MPI_COMM_WORLD, 1) - process 1239
ERROR on proc 2377: Substitution for illegal variable M (../input.cpp:553)
Last command: shell bash $MYWORK/common_files/delete_restart.sh
Rank 2383 [Sat Dec 10 20:33:10 2022] [c6-0c2s14n2] application called MPI_Abort(MPI_COMM_WORLD, 1) - process 2383
ERROR on proc 1235: Substitution for illegal variable M (../input.cpp:553)
Last command: shell bash $MYWORK/common_files/delete_restart.sh
Rank 2384 [Sat Dec 10 20:33:10 2022] [c6-0c2s14n2] application called MPI_Abort(MPI_COMM_WORLD, 1) - process 2384
ERROR on proc 1237: Substitution for illegal variable M (../input.cpp:553)
Last command: shell bash $MYWORK/common_files/delete_restart.sh
Rank 2385 [Sat Dec 10 20:33:10 2022] [c6-0c2s14n2] application called MPI_Abort(MPI_COMM_WORLD, 1) - process 2385
ERROR on proc 2381: Substitution for illegal variable M (../input.cpp:553)
Last command: shell bash $MYWORK/common_files/delete_restart.sh
Rank 2386 [Sat Dec 10 20:33:10 2022] [c6-0c2s14n2] application called MPI_Abort(MPI_COMM_WORLD, 1) - process 2386
ERROR on proc 1239: Substitution for illegal variable M (../input.cpp:553)
Last command: shell bash $MYWORK/common_files/delete_restart.sh
Rank 2387 [Sat Dec 10 20:33:10 2022] [c6-0c2s14n2] application called MPI_Abort(MPI_COMM_WORLD, 1) - process 2387
ERROR on proc 2385: Substitution for illegal variable M (../input.cpp:553)
Last command: shell bash $MYWORK/common_files/delete_restart.sh
Rank 2388 [Sat Dec 10 20:33:10 2022] [c6-0c2s14n2] application called MPI_Abort(MPI_COMM_WORLD, 1) - process 2388
ERROR on proc 2387: Substitution for illegal variable M (../input.cpp:553)
Last command: shell bash $MYWORK/common_files/delete_restart.sh
Rank 2389 [Sat Dec 10 20:33:10 2022] [c6-0c2s14n2] application called MPI_Abort(MPI_COMM_WORLD, 1) - process 2389
ERROR on proc 2393: Substitution for illegal variable M (../input.cpp:553)
Last command: shell bash $MYWORK/common_files/delete_restart.sh
Rank 2390 [Sat Dec 10 20:33:10 2022] [c6-0c2s14n2] application called MPI_Abort(MPI_COMM_WORLD, 1) - process 2390
ERROR on proc 2396: Substitution for illegal variable M (../input.cpp:553)
Last command: shell bash $MYWORK/common_files/delete_restart.sh
Rank 2391 [Sat Dec 10 20:33:10 2022] [c6-0c2s14n2] application called MPI_Abort(MPI_COMM_WORLD, 1) - process 2391
ERROR on proc 2398: Substitution for illegal variable M (../input.cpp:553)
Last command: shell bash $MYWORK/common_files/delete_restart.sh
Rank 2392 [Sat Dec 10 20:33:10 2022] [c6-0c2s14n2] application called MPI_Abort(MPI_COMM_WORLD, 1) - process 2392
ERROR on proc 2399: Substitution for illegal variable M (../input.cpp:553)
Last command: shell bash $MYWORK/common_files/delete_restart.sh
Rank 2393 [Sat Dec 10 20:33:10 2022] [c6-0c2s14n2] application called MPI_Abort(MPI_COMM_WORLD, 1) - process 2393
Rank 2394 [Sat Dec 10 20:33:10 2022] [c6-0c2s14n2] application called MPI_Abort(MPI_COMM_WORLD, 1) - process 2394
Rank 2395 [Sat Dec 10 20:33:10 2022] [c6-0c2s14n2] application called MPI_Abort(MPI_COMM_WORLD, 1) - process 2395
Rank 2396 [Sat Dec 10 20:33:10 2022] [c6-0c2s14n2] application called MPI_Abort(MPI_COMM_WORLD, 1) - process 2396
Rank 2397 [Sat Dec 10 20:33:10 2022] [c6-0c2s14n2] application called MPI_Abort(MPI_COMM_WORLD, 1) - process 2397
Rank 2398 [Sat Dec 10 20:33:10 2022] [c6-0c2s14n2] application called MPI_Abort(MPI_COMM_WORLD, 1) - process 2398
Rank 2399 [Sat Dec 10 20:33:10 2022] [c6-0c2s14n2] application called MPI_Abort(MPI_COMM_WORLD, 1) - process 2399
srun: error: nid01341: tasks 2480-2519: Aborted
srun: launch/slurm: _step_signal: Terminating StepId=826990.0
srun: error: nid01285: tasks 240-279: Aborted
srun: error: nid01313: tasks 1360-1399: Aborted
srun: error: nid01286: tasks 280-319: Aborted
srun: error: nid01314: tasks 1400-1439: Aborted
srun: error: nid01337: tasks 2320-2359: Aborted
srun: error: nid01339: tasks 2400-2439: Aborted
srun: error: nid01306: tasks 1080-1119: Aborted
srun: error: nid01305: tasks 1040-1079: Aborted
srun: error: nid01322: tasks 1720-1759: Aborted
srun: error: nid01317: tasks 1520-1559: Aborted
srun: error: nid01329: tasks 2000-2039: Aborted
srun: error: nid01319: tasks 1600-1639: Aborted
srun: error: nid01291: tasks 480-519: Aborted
srun: error: nid01310: tasks 1240-1279: Aborted
srun: error: nid01333: tasks 2160-2199: Aborted
srun: error: nid01318: tasks 1560-1599: Aborted
srun: error: nid01338: tasks 2360-2399: Aborted
srun: error: nid01330: tasks 2040-2079: Aborted
srun: error: nid01335: tasks 2240-2279: Aborted
srun: error: nid01284: tasks 200-239: Aborted
srun: error: nid01328: tasks 1960-1999: Aborted
srun: error: nid01302: tasks 920-959: Aborted
srun: error: nid01325: tasks 1840-1879: Aborted
srun: error: nid01293: tasks 560-599: Aborted
srun: error: nid01280: tasks 40-79: Aborted
srun: error: nid01281: tasks 80-119: Aborted
srun: error: nid01316: tasks 1480-1519: Aborted
srun: error: nid01334: tasks 2200-2239: Aborted
srun: error: nid01340: tasks 2440-2479: Aborted
srun: error: nid01312: tasks 1320-1359: Aborted
srun: error: nid01309: tasks 1200-1239: Aborted
srun: error: nid01321: tasks 1680-1719: Aborted
srun: error: nid01331: tasks 2080-2119: Aborted
srun: error: nid01324: tasks 1800-1839: Aborted
srun: error: nid01288: tasks 360-399: Aborted
srun: error: nid01295: tasks 640-679: Aborted
srun: error: nid01326: tasks 1880-1919: Aborted
srun: error: nid01315: tasks 1440-1479: Aborted
srun: error: nid01296: tasks 680-719: Aborted
srun: error: nid01290: tasks 440-479: Aborted
srun: error: nid01342: tasks 2520-2559: Aborted
srun: error: nid01300: tasks 840-879: Aborted
srun: error: nid01308: tasks 1160-1199: Aborted
srun: error: nid01283: tasks 160-199: Aborted
srun: error: nid01304: tasks 1000-1039: Aborted
srun: error: nid01323: tasks 1760-1799: Aborted
srun: error: nid01327: tasks 1920-1959: Aborted
srun: error: nid01299: tasks 800-839: Aborted
srun: error: nid01287: tasks 320-359: Aborted
srun: error: nid01301: tasks 880-919: Aborted
srun: error: nid01294: tasks 600-639: Aborted
srun: error: nid01336: tasks 2280-2319: Aborted
srun: error: nid01320: tasks 1640-1679: Aborted
srun: error: nid01282: tasks 120-159: Aborted
srun: error: nid01297: tasks 720-759: Aborted
srun: error: nid01332: tasks 2120-2159: Aborted
srun: error: nid01298: tasks 760-799: Aborted
srun: error: nid01311: tasks 1280-1319: Aborted
srun: error: nid01307: tasks 1120-1159: Aborted
srun: error: nid01289: tasks 400-439: Aborted
srun: error: nid01292: tasks 520-559: Aborted
srun: error: nid01303: tasks 960-999: Aborted
srun: error: nid01279: tasks 0-39: Aborted
