LAMMPS (29 Sep 2021 - Update 1)
KOKKOS mode is enabled (../kokkos.cpp:97)
  will use up to 4 GPU(s) per node
  using 1 OpenMP thread(s) per MPI task
Reading data file ...
  orthogonal box = (0.0000000 0.0000000 0.0000000) to (4143.0751 57.106480 57.106480)
  128 by 1 by 1 MPI processor grid
  reading atoms ...
  360800 atoms
  read_data CPU = 7.787 seconds
800 atoms in group source
800 atoms in group detector
400 atoms in group edge
400 atoms in group edge_buf
120000 atoms in group buffer
WARNING: Using 'neigh_modify every 1 delay 0 check yes' setting during minimization (../min.cpp:188)
Neighbor list info ...
  update every 1 steps, delay 0 steps, check yes
  max neighbors/atom: 2000, page size: 100000
  master list distance cutoff = 7.6
  ghost atom cutoff = 7.6
  binsize = 7.6, bins = 546 8 8
  1 neighbor lists, perpetual/occasional/extra = 1 0 0
  (1) pair eam/alloy/kk, perpetual
      attributes: full, newton off, kokkos_device
      pair build: full/bin/kk/device
      stencil: full/bin/3d
      bin: kk/device
Setting up cg/kk style minimization ...
  Unit style    : metal
  Current step  : 0
WARNING: Fixes cannot yet send exchange data in Kokkos communication, switching to classic exchange/border communication (../comm_kokkos.cpp:581)
Per MPI rank memory allocation (min/avg/max) = 1.617 | 2.946 | 6.026 Mbytes
Time Step Lx Pxx Pxy Pxz Ly Lz Pyy Pzz Pyz 
           0        0    4143.0751    12.766153 -4.5201534e-14 -1.9145523e-14     57.10648     57.10648   -85.456504   -85.456504 -4.4696063e-15 
       0.001        1    4143.0751    4.9624194 -3.6376705e-14 4.0080115e-15     57.10648     57.10648   -95.172201   -95.172201 -4.6310155e-13 
       0.002        2    4143.0751    2.7193318 -6.8899981e-14 9.3074793e-15     57.10648     57.10648   -97.006352   -97.006352 4.092266e-13 
       0.003        3    4143.0751    3.2072967 -7.7018872e-14 -5.8863636e-14     57.10648     57.10648   -96.140203   -96.140203 -1.1558318e-13 
       0.004        4    4143.0751    2.6400573 5.6983137e-14 7.1010431e-14     57.10648     57.10648   -96.501525   -96.501525 4.280138e-13 
       0.005        5    4143.0751    1.8692697 -1.8132089e-14 6.229918e-14     57.10648     57.10648   -97.038029   -97.038029 -3.8632332e-14 
       0.006        6    4143.0751    1.5880349 -1.0619737e-13 -6.7620964e-14     57.10648     57.10648   -97.222835   -97.222835 -4.8022912e-13 
       0.007        7    4143.0751    1.4304795 1.2198793e-13 -1.191158e-13     57.10648     57.10648   -97.302236   -97.302236 1.5091883e-13 
       0.008        8    4143.0751    1.3102667 1.6148032e-13 1.3445867e-13     57.10648     57.10648   -97.373091   -97.373091 -6.709526e-14 
       0.009        9    4143.0751    1.1651506 -8.2987996e-14 -9.2558972e-14     57.10648     57.10648   -97.467596   -97.467596 9.1775803e-14 
        0.01       10    4143.0751    1.0801049 -9.1554063e-14 -2.7460897e-14     57.10648     57.10648   -97.519517   -97.519517 -4.8344863e-14 
       0.011       11    4143.0751    1.0182961 -1.154419e-13 2.5247145e-14     57.10648     57.10648    -97.55383    -97.55383 6.2871185e-14 
       0.012       12    4143.0751   0.96492776 -1.3882571e-13 5.7284334e-14     57.10648     57.10648   -97.585187   -97.585187 4.4623103e-15 
       0.013       13    4143.0751   0.90630688 -5.940039e-14 1.0171257e-13     57.10648     57.10648   -97.622306   -97.622306 1.3804404e-15 
       0.014       14    4143.0751   0.86458184 2.204503e-13 -7.6091588e-15     57.10648     57.10648   -97.647661   -97.647661 -4.7037069e-14 
       0.015       15    4143.0751   0.83242506 1.5692441e-13 2.181752e-14     57.10648     57.10648   -97.665622   -97.665622 -1.8928691e-13 
       0.016       16    4143.0751   0.80214445 1.2923659e-13 1.8479025e-13     57.10648     57.10648   -97.683642   -97.683642 -4.1029419e-14 
       0.017       17    4143.0751   0.77060996 1.214372e-13 -1.5954192e-14     57.10648     57.10648   -97.703317   -97.703317 -3.6598059e-14 
       0.018       18    4143.0751   0.74604836 3.9518816e-15 1.3379453e-13     57.10648     57.10648   -97.718075   -97.718075 -4.6910898e-14 
       0.019       19    4143.0751   0.72612731 5.1415946e-14 -5.0113721e-15     57.10648     57.10648   -97.729394   -97.729394 3.1722888e-14 
        0.02       20    4143.0751   0.70656474 3.3602598e-13 1.0809519e-13     57.10648     57.10648   -97.741056   -97.741056 -3.6870141e-14 
       0.021       21    4143.0751   0.68688567 5.8199638e-13 4.3708138e-13     57.10648     57.10648   -97.753242   -97.753242 -3.4578195e-13 
       0.022       22    4143.0751    0.6706921 5.0877518e-12 4.3824879e-12     57.10648     57.10648   -97.762916   -97.762916 -3.1472325e-12 
       0.023       23    4143.0751   0.65754755 3.3071234e-11 2.4675035e-11     57.10648     57.10648   -97.770446   -97.770446 -2.0164592e-11 
       0.024       24    4143.0751   0.64680771 1.0925754e-10 6.8209778e-11     57.10648     57.10648   -97.776831   -97.776831 -6.3968843e-11 
       0.025       25    4143.0751   0.63573221 3.7291902e-11 1.2841711e-11     57.10648     57.10648   -97.783598   -97.783598 -1.9506769e-11 
       0.026       26    4143.0751   0.62405724 7.1965631e-12 -8.512555e-13     57.10648     57.10648   -97.790725   -97.790725 -2.432869e-12 
       0.027       27    4143.0751   0.61327154 -4.4211328e-13 2.4970509e-11     57.10648     57.10648   -97.797024   -97.797024 -1.3960422e-13 
       0.028       28    4143.0751   0.60492297 -1.6715998e-11 1.2308284e-10     57.10648     57.10648    -97.80188    -97.80188 -6.6513384e-13 
       0.029       29    4143.0751   0.59726115 -1.709043e-11 1.048974e-10     57.10648     57.10648    -97.80648    -97.80648 -2.8746199e-12 
        0.03       30    4143.0751   0.58819391 -4.6870822e-12 1.8846547e-11     57.10648     57.10648   -97.812033   -97.812033 -2.2724692e-12 
       0.031       31    4143.0751   0.57979298 -7.0387846e-12 9.723559e-12     57.10648     57.10648   -97.817063   -97.817063 -3.0626529e-12 
       0.032       32    4143.0751   0.57309809 -1.6335002e-11 1.647133e-11     57.10648     57.10648   -97.820949   -97.820949 -2.4997391e-12 
       0.033       33    4143.0751    0.5673924 -7.727255e-12 9.3661848e-12     57.10648     57.10648   -97.824298   -97.824298 5.4110325e-13 
       0.034       34    4143.0751   0.56001662 -3.1439238e-13 2.5049623e-13     57.10648     57.10648   -97.828763   -97.828763 1.4861993e-12 
       0.035       35    4143.0751    0.5533249 2.3277888e-12 -1.0458097e-11     57.10648     57.10648   -97.832832   -97.832832 3.675281e-12 
       0.036       36    4143.0751   0.54803408 4.3633256e-12 -1.6458922e-11     57.10648     57.10648   -97.835964   -97.835964 6.9788737e-12 
       0.037       37    4143.0751   0.54284693 5.5186489e-13 1.3274211e-13     57.10648     57.10648   -97.838985   -97.838985 3.2481431e-12 
       0.038       38    4143.0751   0.53719438 -5.7004937e-12 6.7239455e-12     57.10648     57.10648   -97.842337   -97.842337 1.6557103e-12 
       0.039       39    4143.0751   0.53181962 -1.8269528e-11 1.0634078e-11     57.10648     57.10648   -97.845605   -97.845605 -9.3250647e-13 
        0.04       40    4143.0751   0.52734386 -1.0432293e-11 6.4700498e-12     57.10648     57.10648    -97.84831    -97.84831 -1.8019063e-12 
       0.041       41    4143.0751   0.52241587 -2.2975046e-12 2.1838364e-12     57.10648     57.10648   -97.851213   -97.851213 -1.128671e-12 
       0.042       42    4143.0751   0.51802413 -4.7568236e-12 -9.2960371e-13     57.10648     57.10648   -97.853781   -97.853781 -1.3062914e-12 
       0.043       43    4143.0751   0.51404124 -5.4454931e-12 1.1953523e-12     57.10648     57.10648   -97.856164   -97.856164 -1.082956e-12 
       0.044       44    4143.0751   0.50963404 -6.2875651e-13 5.4903125e-12     57.10648     57.10648   -97.858839   -97.858839 3.2971375e-13 
       0.045       45    4143.0751   0.50538232 -7.309419e-13 6.3973395e-12     57.10648     57.10648   -97.861389   -97.861389 1.9700395e-12 
       0.046       46    4143.0751   0.50181917 -1.1751601e-12 2.6744837e-12     57.10648     57.10648   -97.863479   -97.863479 3.3220007e-12 
       0.047       47    4143.0751   0.49842073 -1.3214123e-12 3.7971519e-13     57.10648     57.10648   -97.865474   -97.865474 1.379449e-12 
       0.048       48    4143.0751   0.49442113 -4.872046e-12 8.8778276e-13     57.10648     57.10648   -97.867879   -97.867879 8.1606901e-15 
       0.049       49    4143.0751   0.49090654 -1.0624814e-11 6.0761871e-13     57.10648     57.10648   -97.870007   -97.870007 -1.1732716e-12 
        0.05       50    4143.0751   0.48776381 -6.295918e-12 3.8866945e-13     57.10648     57.10648   -97.871882   -97.871882 -9.8669036e-13 
       0.051       51    4143.0751    0.4844264 -2.4956077e-12 1.4984806e-12     57.10648     57.10648   -97.873838   -97.873838 -1.7933587e-13 
       0.052       52    4143.0751   0.48130477 -5.4092532e-12 4.3056091e-12     57.10648     57.10648   -97.875686   -97.875686 -7.5408608e-13 
       0.053       53    4143.0751   0.47832524 -5.2086927e-12 5.1334714e-12     57.10648     57.10648   -97.877482   -97.877482 -1.1692229e-12 
       0.054       54    4143.0751   0.47523809 -1.8109028e-12 3.0516064e-12     57.10648     57.10648   -97.879347   -97.879347 -3.3324604e-13 
       0.055       55    4143.0751   0.47225349 -1.3090547e-12 3.5424644e-12     57.10648     57.10648   -97.881115   -97.881115 6.6280357e-13 
       0.056       56    4143.0751   0.46974468 -2.6146345e-12 3.0721876e-12     57.10648     57.10648   -97.882587   -97.882587 1.4980083e-12 
       0.057       57    4143.0751   0.46704872 -1.8680929e-12 7.5813517e-13     57.10648     57.10648   -97.884189   -97.884189 1.2519213e-12 
       0.058       58    4143.0751   0.46412353 -1.2664451e-12 -1.2066162e-12     57.10648     57.10648   -97.885956   -97.885956 1.9018952e-12 
       0.059       59    4143.0751   0.46165039 -5.9529872e-13 -1.1156601e-12     57.10648     57.10648   -97.887442   -97.887442 2.9015595e-12 
        0.06       60    4143.0751   0.45917705 -5.318688e-13 1.1490337e-12     57.10648     57.10648   -97.888904   -97.888904 2.2724381e-12 
       0.061       61    4143.0751   0.45670847 -2.4271671e-12 -1.5156898e-12     57.10648     57.10648   -97.890355   -97.890355 3.3770899e-12 
       0.062       62    4143.0751   0.45437429 -5.5113313e-12 -7.911306e-12     57.10648     57.10648   -97.891751   -97.891751 6.0492911e-12 
       0.063       63    4143.0751   0.45205929 -3.073424e-12 -5.6625403e-12     57.10648     57.10648   -97.893149   -97.893149 4.0101429e-12 
       0.064       64    4143.0751    0.4496625 -1.729333e-12 -5.7970206e-12     57.10648     57.10648   -97.894584   -97.894584 4.6001813e-12 
       0.065       65    4143.0751   0.44750004 -1.2997494e-12 -9.8905031e-12     57.10648     57.10648   -97.895858   -97.895858 8.2357591e-12 
       0.066       66    4143.0751   0.44552066 -3.5954501e-14 -6.579684e-12     57.10648     57.10648   -97.897026   -97.897026 6.0201652e-12 
       0.067       67    4143.0751   0.44324565 1.2990799e-13 -3.4679212e-12     57.10648     57.10648   -97.898389   -97.898389 4.4631674e-12 
       0.068       68    4143.0751   0.44112952 -2.0500375e-13 -2.5975659e-12     57.10648     57.10648   -97.899665   -97.899665 5.0788298e-12 
       0.069       69    4143.0751   0.43917872 6.8541675e-13 -1.6503777e-12     57.10648     57.10648   -97.900828   -97.900828 3.3563572e-12 
        0.07       70    4143.0751   0.43714027 9.2630715e-13 -1.2995354e-12     57.10648     57.10648   -97.902029   -97.902029 1.8831492e-12 
       0.071       71    4143.0751   0.43523547 -6.309425e-13 -1.9901529e-12     57.10648     57.10648   -97.903158   -97.903158 1.9024484e-12 
       0.072       72    4143.0751   0.43333971 -1.1868185e-12 -1.3172756e-12     57.10648     57.10648   -97.904296   -97.904296 9.2942155e-13 
       0.073       73    4143.0751   0.43136627 -1.9107544e-13 -1.6660623e-13     57.10648     57.10648   -97.905484   -97.905484 4.8876963e-14 
       0.074       74    4143.0751   0.42950189 1.3280705e-13 -1.4474946e-13     57.10648     57.10648   -97.906591   -97.906591 -1.779064e-13 
       0.075       75    4143.0751    0.4278118 8.2700549e-13 -6.7106647e-13     57.10648     57.10648   -97.907587   -97.907587 -2.5639007e-13 
       0.076       76    4143.0751   0.42599145 9.9445423e-13 -6.2640238e-13     57.10648     57.10648   -97.908669   -97.908669 -2.8078891e-13 
       0.077       77    4143.0751   0.42413788 8.3725502e-13 -3.8607981e-13     57.10648     57.10648   -97.909784   -97.909784 -3.9598385e-14 
       0.078       78    4143.0751   0.42250691 5.7978868e-13 6.906617e-13     57.10648     57.10648   -97.910763   -97.910763 -1.8034833e-13 
       0.079       79    4143.0751   0.42078778 3.4037134e-13 5.5850513e-13     57.10648     57.10648   -97.911782   -97.911782 2.6440433e-13 
        0.08       80    4143.0751   0.41915094 -5.888514e-13 4.951283e-13     57.10648     57.10648   -97.912747   -97.912747 4.9867809e-13 
       0.081       81    4143.0751   0.41758767 -6.1758296e-13 4.6099438e-13     57.10648     57.10648    -97.91368    -97.91368 2.9048908e-13 
       0.082       82    4143.0751   0.41588536 2.6906623e-13 -2.6526724e-13     57.10648     57.10648   -97.914704   -97.914704 -2.1482229e-15 
       0.083       83    4143.0751   0.41424414 -3.4150302e-13 -6.0492965e-13     57.10648     57.10648   -97.915686   -97.915686 -2.1333256e-14 
       0.084       84    4143.0751   0.41275388 -8.3923433e-13 -7.4198971e-13     57.10648     57.10648   -97.916567   -97.916567 -2.8079119e-13 
       0.085       85    4143.0751   0.41125744 -6.4648579e-13 -9.7733537e-13     57.10648     57.10648   -97.917452   -97.917452 -2.8568699e-13 
       0.086       86    4143.0751   0.40967768 -7.4951894e-13 -1.8237848e-12     57.10648     57.10648   -97.918396   -97.918396 1.4580868e-13 
       0.087       87    4143.0751   0.40821093 -4.5422864e-13 -1.3367596e-12     57.10648     57.10648   -97.919278   -97.919278 3.8299316e-13 
       0.088       88    4143.0751   0.40671985 8.0606822e-14 -9.6019872e-13     57.10648     57.10648   -97.920169   -97.920169 3.7771427e-13 
       0.089       89    4143.0751   0.40524719 3.080061e-14 -1.7441618e-12     57.10648     57.10648   -97.921038   -97.921038 3.8749909e-13 
        0.09       90    4143.0751    0.4039026 3.9524733e-13 -1.7182043e-12     57.10648     57.10648   -97.921835   -97.921835 9.5192917e-13 
       0.091       91    4143.0751   0.40243363 1.1226745e-12 -6.1839175e-13     57.10648     57.10648   -97.922715   -97.922715 5.4860669e-13 
       0.092       92    4143.0751   0.40098434 1.0588076e-12 -7.1562382e-13     57.10648     57.10648   -97.923586   -97.923586 2.0848183e-13 
       0.093       93    4143.0751   0.39964972 1.0112218e-12 -5.5911213e-13     57.10648     57.10648    -97.92438    -97.92438 -2.6874686e-14 
       0.094       94    4143.0751   0.39828851 1.1357735e-12 -2.8062651e-13     57.10648     57.10648   -97.925184   -97.925184 -3.6357002e-13 
       0.095       95    4143.0751    0.3969231 1.0425625e-12 -9.1123403e-13     57.10648     57.10648   -97.925996   -97.925996 -6.8746523e-13 
       0.096       96    4143.0751   0.39559879 7.7222186e-13 -1.1078042e-12     57.10648     57.10648    -97.92679    -97.92679 -9.7321392e-13 
       0.097       97    4143.0751   0.39426216 8.4807907e-13 -1.9350578e-13     57.10648     57.10648   -97.927592   -97.927592 -7.9513951e-13 
       0.098       98    4143.0751    0.3929261 7.9924378e-13 -3.1229586e-13     57.10648     57.10648   -97.928385   -97.928385 -4.8012215e-13 
       0.099       99    4143.0751   0.39170805 9.2292646e-13 -3.803666e-13     57.10648     57.10648   -97.929105   -97.929105 -4.0711429e-13 
         0.1      100    4143.0751   0.39042618 1.0875001e-12 2.0839749e-13     57.10648     57.10648   -97.929868   -97.929868 -4.863818e-14 
       0.101      101    4143.0751   0.38910141 1.4235338e-12 1.5643679e-13     57.10648     57.10648   -97.930663   -97.930663 1.0197672e-13 
       0.102      102    4143.0751   0.38788113 1.0083941e-12 -9.8536408e-14     57.10648     57.10648   -97.931394   -97.931394 3.6717223e-13 
       0.103      103    4143.0751   0.38661676 4.5575945e-13 1.3695361e-13     57.10648     57.10648   -97.932143   -97.932143 -6.7909963e-14 
       0.104      104    4143.0751   0.38539548 -2.8057053e-13 -3.4400665e-14     57.10648     57.10648   -97.932866   -97.932866 -2.969316e-13 
       0.105      105    4143.0751   0.38421654 -7.0778171e-13 -2.1930884e-13     57.10648     57.10648    -97.93357    -97.93357 -1.8165176e-13 
       0.106      106    4143.0751   0.38296674 -2.3143466e-13 -3.2328372e-13     57.10648     57.10648    -97.93432    -97.93432 -3.0049056e-13 
       0.107      107    4143.0751   0.38173951 -7.1065035e-13 -6.819797e-13     57.10648     57.10648   -97.935053   -97.935053 -4.0474822e-13 
       0.108      108    4143.0751   0.38059752 -7.3744293e-13 -9.6261417e-13     57.10648     57.10648   -97.935729   -97.935729 -5.1317484e-13 
       0.109      109    4143.0751   0.37943737 -4.4635516e-13 -6.3075376e-13     57.10648     57.10648   -97.936417   -97.936417 -1.6639994e-13 
        0.11      110    4143.0751   0.37822117 -7.1278632e-13 -4.1764757e-13     57.10648     57.10648   -97.937144   -97.937144 -2.424786e-13 
       0.111      111    4143.0751    0.3770823 -4.0630849e-13 -6.2777917e-13     57.10648     57.10648   -97.937827   -97.937827 -8.309762e-14 
       0.112      112    4143.0751   0.37592014 -1.214851e-13 -3.4535859e-13     57.10648     57.10648    -97.93852    -97.93852 6.9295274e-15 
       0.113      113    4143.0751   0.37477118 -8.728882e-13 -2.0852942e-13     57.10648     57.10648     -97.9392     -97.9392 -2.410699e-13 
       0.114      114    4143.0751   0.37369487 -9.974183e-13 -1.3277679e-13     57.10648     57.10648   -97.939839   -97.939839 -3.4171432e-13 
       0.115      115    4143.0751   0.37253724 -7.8206214e-13 -6.0756813e-13     57.10648     57.10648   -97.940532   -97.940532 -2.8891406e-13 
       0.116      116    4143.0751     0.371404 -6.5426706e-13 -7.7231063e-13     57.10648     57.10648   -97.941211   -97.941211 -2.6588397e-13 
       0.117      117    4143.0751   0.37033047 -2.2465188e-13 -6.2065787e-14     57.10648     57.10648    -97.94185    -97.94185 -3.8576357e-13 
       0.118      118    4143.0751   0.36922889 3.5750291e-14 -2.4199763e-13     57.10648     57.10648   -97.942502   -97.942502 -3.2274459e-13 
       0.119      119    4143.0751   0.36812782 5.7283266e-14 -8.6307335e-13     57.10648     57.10648   -97.943157   -97.943157 -1.1429706e-13 
        0.12      120    4143.0751   0.36704417 2.2243606e-13 -4.4328619e-13     57.10648     57.10648   -97.943806   -97.943806 -1.3885224e-14 
       0.121      121    4143.0751   0.36594124 4.6427619e-13 -2.3661865e-13     57.10648     57.10648   -97.944466   -97.944466 8.8830956e-14 
       0.122      122    4143.0751   0.36485275 3.5692293e-13 -7.1335566e-13     57.10648     57.10648   -97.945113   -97.945113 1.219916e-13 
       0.123      123    4143.0751   0.36383789 4.6115316e-13 -1.0025527e-12     57.10648     57.10648   -97.945714   -97.945714 2.0836102e-13 
       0.124      124    4143.0751   0.36275864 1.7785453e-13 -9.0912534e-13     57.10648     57.10648   -97.946357   -97.946357 9.6045558e-14 
       0.125      125    4143.0751   0.36167185 -1.4302458e-13 -1.4056419e-12     57.10648     57.10648   -97.947009   -97.947009 9.5157121e-14 
       0.126      126    4143.0751   0.36065531 9.4897684e-14 -1.4547211e-12     57.10648     57.10648   -97.947616   -97.947616 4.8933975e-14 
       0.127      127    4143.0751   0.35960041 -8.1771355e-14 -8.0114481e-13     57.10648     57.10648   -97.948242   -97.948242 -9.0878248e-14 
       0.128      128    4143.0751   0.35857582 -5.8999329e-13 -1.7578466e-13     57.10648     57.10648    -97.94885    -97.94885 -2.2912711e-13 
       0.129      129    4143.0751   0.35754982 -5.6185385e-13 -7.7276033e-14     57.10648     57.10648   -97.949462   -97.949462 -8.8612915e-14 
        0.13      130    4143.0751   0.35648792 -5.1440472e-13 -2.5036822e-13     57.10648     57.10648   -97.950098   -97.950098 -2.3721661e-13 
       0.131      131    4143.0751   0.35546573 -1.1959248e-12 -6.4846167e-13     57.10648     57.10648   -97.950708   -97.950708 -1.6404247e-13 
       0.132      132    4143.0751   0.35447004 -1.241595e-12 -5.7912903e-13     57.10648     57.10648   -97.951298   -97.951298 -1.32611e-13 
       0.133      133    4143.0751   0.35345123 -9.832486e-13 -6.7943553e-13     57.10648     57.10648   -97.951903   -97.951903 -6.2989803e-14 
       0.134      134    4143.0751   0.35242699 -1.5028693e-12 -1.1305585e-12     57.10648     57.10648   -97.952515   -97.952515 1.0441712e-13 
       0.135      135    4143.0751   0.35143353 -1.425777e-12 -1.0239857e-12     57.10648     57.10648    -97.95311    -97.95311 2.1639171e-13 
       0.136      136    4143.0751   0.35041185 -1.4794587e-12 -8.9802839e-13     57.10648     57.10648   -97.953719   -97.953719 5.1215304e-14 
       0.137      137    4143.0751   0.34943342 -1.4383048e-12 -6.3434154e-13     57.10648     57.10648   -97.954299   -97.954299 1.8484149e-13 
       0.138      138    4143.0751   0.34846766 -1.1104368e-12 -4.6639402e-13     57.10648     57.10648   -97.954873   -97.954873 8.9238276e-14 
       0.139      139    4143.0751   0.34743598 -8.2523504e-13 -2.7269278e-13     57.10648     57.10648    -97.95549    -97.95549 -4.5746999e-14 
        0.14      140    4143.0751   0.34645826 -8.2385729e-13 -7.3335611e-13     57.10648     57.10648   -97.956075   -97.956075 2.818368e-14 
       0.141      141    4143.0751   0.34548393 -4.2439355e-13 -5.201738e-13     57.10648     57.10648   -97.956655   -97.956655 1.3406946e-14 
       0.142      142    4143.0751   0.34449153 -4.6522313e-13 -3.4547477e-13     57.10648     57.10648   -97.957243   -97.957243 1.7283966e-14 
       0.143      143    4143.0751   0.34353072 -6.4611673e-13 -8.3707581e-13     57.10648     57.10648   -97.957815   -97.957815 -1.6010776e-13 
       0.144      144    4143.0751   0.34255197 -7.2244052e-14 -4.9231345e-13     57.10648     57.10648   -97.958401   -97.958401 -1.4248317e-13 
       0.145      145    4143.0751   0.34155857 -4.4207945e-14 -4.0659272e-13     57.10648     57.10648   -97.958995   -97.958995 -1.6093232e-13 
       0.146      146    4143.0751   0.34060379 -3.0336102e-14 -2.2938677e-13     57.10648     57.10648   -97.959562   -97.959562 -3.4830419e-14 
       0.147      147    4143.0751   0.33966404 4.9596744e-14 -3.8017515e-13     57.10648     57.10648    -97.96012    -97.96012 -1.0768026e-13 
       0.148      148    4143.0751   0.33867908 -7.3791747e-15 -2.0705105e-13     57.10648     57.10648   -97.960707   -97.960707 -1.1944149e-13 
       0.149      149    4143.0751   0.33772284 5.3520098e-14 -3.7251092e-13     57.10648     57.10648   -97.961279   -97.961279 -1.257518e-13 
        0.15      150    4143.0751   0.33676917 3.5697277e-13 -2.6448982e-13     57.10648     57.10648   -97.961849   -97.961849 -1.6149873e-13 
       0.151      151    4143.0751   0.33579346 5.7014288e-13 -2.5943795e-13     57.10648     57.10648   -97.962428   -97.962428 -2.1947119e-13 
       0.152      152    4143.0751   0.33487023 2.6189579e-13 -3.3938743e-13     57.10648     57.10648   -97.962976   -97.962976 4.9337366e-14 
       0.153      153    4143.0751   0.33390762 -6.3347861e-14 -1.3608537e-13     57.10648     57.10648   -97.963551   -97.963551 -2.1137706e-13 
       0.154      154    4143.0751   0.33293148 -5.545938e-13 -9.3235213e-14     57.10648     57.10648   -97.964135   -97.964135 -2.382888e-13 
       0.155      155    4143.0751   0.33200781 -7.6159255e-13 -4.8977635e-13     57.10648     57.10648   -97.964685   -97.964685 -6.5166772e-14 
       0.156      156    4143.0751   0.33106715 -5.1159705e-13 -1.1863729e-13     57.10648     57.10648   -97.965244   -97.965244 -6.6510835e-14 
       0.157      157    4143.0751   0.33011658 -1.0461872e-12 2.3449737e-13     57.10648     57.10648   -97.965809   -97.965809 2.0452306e-13 
       0.158      158    4143.0751   0.32918013 -1.2051031e-12 3.2069744e-13     57.10648     57.10648   -97.966368   -97.966368 1.5024383e-13 
       0.159      159    4143.0751   0.32823704 -7.6182819e-13 2.1019763e-13     57.10648     57.10648   -97.966932   -97.966932 -9.2590666e-15 
        0.16      160    4143.0751   0.32728618 -1.0011877e-12 -2.7588657e-14     57.10648     57.10648   -97.967499   -97.967499 -7.0427451e-14 
       0.161      161    4143.0751   0.32637821 -1.4470796e-12 -3.4401593e-13     57.10648     57.10648   -97.968037   -97.968037 -3.4820022e-14 
       0.162      162    4143.0751   0.32544607 -1.0939077e-12 9.4410952e-15     57.10648     57.10648   -97.968592   -97.968592 -1.1421048e-13 
       0.163      163    4143.0751   0.32448668 -1.3070858e-12 2.398488e-13     57.10648     57.10648   -97.969166   -97.969166 -8.7656617e-14 
       0.164      164    4143.0751   0.32357425 -1.2398034e-12 2.486476e-13     57.10648     57.10648   -97.969711   -97.969711 -1.6969304e-13 
       0.165      165    4143.0751   0.32263589 -6.0473825e-13 7.5187005e-14     57.10648     57.10648   -97.970269   -97.970269 8.4082738e-14 
       0.166      166    4143.0751   0.32171108 -5.7018761e-13 7.7583649e-14     57.10648     57.10648   -97.970818   -97.970818 -1.4122723e-13 
       0.167      167    4143.0751   0.32080041 -4.1109301e-13 8.8249322e-14     57.10648     57.10648    -97.97136    -97.97136 -1.2658432e-13 
       0.168      168    4143.0751   0.31984883 -6.6815978e-14 1.2491113e-13     57.10648     57.10648    -97.97193    -97.97193 -2.1751724e-13 
       0.169      169    4143.0751   0.31892103 -8.1437319e-14 4.099891e-13     57.10648     57.10648   -97.972484   -97.972484 -9.6684079e-14 
        0.17      170    4143.0751   0.31801169 2.5466346e-13 3.0053359e-13     57.10648     57.10648   -97.973024   -97.973024 8.0237238e-14 
       0.171      171    4143.0751   0.31708622 3.9303026e-13 -1.1262353e-14     57.10648     57.10648   -97.973574   -97.973574 -1.9900244e-13 
       0.172      172    4143.0751   0.31615663 5.0794338e-13 2.2375137e-13     57.10648     57.10648   -97.974128   -97.974128 -1.4231652e-13 
       0.173      173    4143.0751   0.31524319 8.8465314e-13 2.9698276e-14     57.10648     57.10648   -97.974674   -97.974674 -1.2196857e-13 
       0.174      174    4143.0751   0.31430984 7.8668458e-13 2.136279e-13     57.10648     57.10648   -97.975231   -97.975231 -5.0701485e-14 
       0.175      175    4143.0751   0.31339115 6.0695189e-13 3.2548652e-13     57.10648     57.10648   -97.975777   -97.975777 -3.6718868e-14 
       0.176      176    4143.0751    0.3124967 6.4892612e-13 1.7735271e-13     57.10648     57.10648   -97.976308   -97.976308 -2.7581542e-14 
       0.177      177    4143.0751   0.31155646 6.9286595e-13 -6.106076e-14     57.10648     57.10648    -97.97687    -97.97687 5.7580109e-14 
       0.178      178    4143.0751   0.31064076 3.412739e-13 1.3535258e-13     57.10648     57.10648   -97.977417   -97.977417 9.4254871e-14 
       0.179      179    4143.0751   0.30973311 3.0537827e-13 3.0102485e-13     57.10648     57.10648   -97.977958   -97.977958 1.3912501e-14 
        0.18      180    4143.0751    0.3088065 6.2828101e-13 1.4031027e-13     57.10648     57.10648   -97.978508   -97.978508 8.4503766e-14 
       0.181      181    4143.0751   0.30790951 1.8981339e-13 -1.4301822e-13     57.10648     57.10648   -97.979042   -97.979042 5.0706729e-14 
       0.182      182    4143.0751   0.30698798 2.4988463e-14 -1.3828477e-13     57.10648     57.10648   -97.979592   -97.979592 9.0387169e-14 
       0.183      183    4143.0751   0.30605493 -1.4209994e-13 2.9638663e-13     57.10648     57.10648    -97.98015    -97.98015 -1.3867804e-13 
       0.184      184    4143.0751   0.30514923 -3.6451735e-13 2.601417e-13     57.10648     57.10648   -97.980689   -97.980689 -2.1364322e-13 
       0.185      185    4143.0751   0.30424494 -3.565433e-13 -2.6863716e-14     57.10648     57.10648   -97.981226   -97.981226 -1.3436301e-13 
       0.186      186    4143.0751   0.30332152 -4.1015863e-13 2.395679e-13     57.10648     57.10648   -97.981776   -97.981776 -1.064144e-13 
       0.187      187    4143.0751   0.30240992 -6.6666641e-13 5.1927306e-13     57.10648     57.10648   -97.982321   -97.982321 -9.1030702e-14 
       0.188      188    4143.0751   0.30149861 -7.0320933e-13 4.2060342e-13     57.10648     57.10648   -97.982865   -97.982865 -1.2477507e-13 
       0.189      189    4143.0751   0.30057254 -8.1813575e-13 3.5300669e-13     57.10648     57.10648   -97.983416   -97.983416 7.352384e-16 
        0.19      190    4143.0751   0.29968402 -7.5856777e-13 4.1273654e-13     57.10648     57.10648   -97.983944   -97.983944 1.5126173e-13 
       0.191      191    4143.0751   0.29876856 -7.0580551e-13 3.1631503e-13     57.10648     57.10648   -97.984489   -97.984489 4.6524914e-14 
       0.192      192    4143.0751   0.29783842 -8.7740179e-13 -9.6645185e-14     57.10648     57.10648   -97.985045   -97.985045 1.5445735e-13 
       0.193      193    4143.0751   0.29694431 -8.9966097e-13 -1.7367768e-13     57.10648     57.10648   -97.985579   -97.985579 1.0486855e-14 
       0.194      194    4143.0751   0.29602264 -1.0100418e-12 -2.600799e-13     57.10648     57.10648   -97.986127   -97.986127 -1.3382112e-13 
       0.195      195    4143.0751    0.2951104 -8.7250079e-13 1.1255676e-13     57.10648     57.10648   -97.986669   -97.986669 7.062766e-14 
       0.196      196    4143.0751   0.29420756 -2.7443328e-13 3.1099072e-13     57.10648     57.10648   -97.987207   -97.987207 -3.9819574e-14 
       0.197      197    4143.0751   0.29328216 -3.8729307e-13 5.3029701e-14     57.10648     57.10648    -97.98776    -97.98776 7.7388158e-14 
       0.198      198    4143.0751   0.29236552 -7.8079237e-13 -2.3813201e-13     57.10648     57.10648   -97.988307   -97.988307 -1.4719674e-13 
       0.199      199    4143.0751   0.29146491 -8.6126101e-13 -3.1201521e-13     57.10648     57.10648   -97.988842   -97.988842 -1.4911042e-13 
         0.2      200    4143.0751   0.29054943 -1.2095109e-12 -3.0073541e-13     57.10648     57.10648   -97.989386   -97.989386 -1.3793335e-13 
       0.201      201    4143.0751   0.28962577 -1.2254254e-12 -2.0811142e-13     57.10648     57.10648   -97.989938   -97.989938 -1.0306703e-13 
       0.202      202    4143.0751   0.28872522 -8.3645595e-13 -4.9284516e-13     57.10648     57.10648   -97.990476   -97.990476 -1.8298363e-13 
       0.203      203    4143.0751   0.28780118 -9.4039822e-13 -5.7741025e-13     57.10648     57.10648   -97.991026   -97.991026 -9.7747769e-14 
       0.204      204    4143.0751   0.28689481 -1.7413049e-12 -6.1921144e-13     57.10648     57.10648   -97.991565   -97.991565 -2.0524022e-13 
       0.205      205    4143.0751   0.28600221 -1.4847178e-12 -6.6550551e-13     57.10648     57.10648   -97.992096   -97.992096 -1.4056923e-13 
       0.206      206    4143.0751   0.28506753 -1.1804779e-12 -7.0285366e-13     57.10648     57.10648   -97.992654   -97.992654 -5.1399799e-14 
       0.207      207    4143.0751   0.28415977 -1.3417008e-12 -4.9809273e-13     57.10648     57.10648   -97.993196   -97.993196 -1.2017779e-13 
       0.208      208    4143.0751   0.28325371 -9.8347953e-13 -3.2275935e-13     57.10648     57.10648   -97.993736   -97.993736 -1.3046129e-13 
       0.209      209    4143.0751   0.28233361 -9.3904538e-13 -6.2612189e-13     57.10648     57.10648   -97.994282   -97.994282 -8.7556914e-14 
        0.21      210    4143.0751   0.28142975 -1.2365261e-12 -1.0520571e-12     57.10648     57.10648   -97.994821   -97.994821 8.0442938e-14 
       0.211      211    4143.0751   0.28051139 -1.1432328e-12 -8.0631742e-13     57.10648     57.10648   -97.995369   -97.995369 -3.2276169e-14 
       0.212      212    4143.0751   0.27958396 -9.5588938e-13 -3.2605715e-13     57.10648     57.10648   -97.995923   -97.995923 -4.3885267e-14 
       0.213      213    4143.0751    0.2786764 -1.3499425e-12 -2.9677324e-13     57.10648     57.10648   -97.996463   -97.996463 -3.617908e-14 
       0.214      214    4143.0751   0.27777384 -8.3996668e-13 -4.1773946e-13     57.10648     57.10648   -97.996999   -97.996999 -2.9958313e-14 
       0.215      215    4143.0751   0.27684427 -2.869455e-13 -3.9032589e-13     57.10648     57.10648   -97.997553   -97.997553 -1.3997533e-13 
       0.216      216    4143.0751   0.27593208 -3.4938554e-13 -3.4295845e-13     57.10648     57.10648   -97.998098   -97.998098 -7.1077299e-14 
       0.217      217    4143.0751   0.27501867 -3.7805299e-13 -5.1317839e-13     57.10648     57.10648   -97.998643   -97.998643 2.7179376e-14 
       0.218      218    4143.0751   0.27409219 -1.5244909e-13 -6.8132165e-13     57.10648     57.10648   -97.999194   -97.999194 -2.1881328e-13 
       0.219      219    4143.0751   0.27319777 7.2054054e-14 -3.8474957e-13     57.10648     57.10648   -97.999726   -97.999726 -1.190166e-13 
        0.22      220    4143.0751   0.27227321 -3.6279924e-13 -1.8782769e-13     57.10648     57.10648   -98.000277   -98.000277 -8.8761465e-15 
       0.221      221    4143.0751   0.27134249 -7.0158659e-13 -2.6961835e-14     57.10648     57.10648   -98.000833   -98.000833 -2.4074738e-13 
       0.222      222    4143.0751   0.27043638 -8.7272281e-13 -1.3029098e-13     57.10648     57.10648   -98.001374   -98.001374 -3.5263912e-15 
       0.223      223    4143.0751   0.26951453 -6.7338378e-13 -2.9845627e-13     57.10648     57.10648   -98.001921   -98.001921 -3.0442148e-14 
       0.224      224    4143.0751   0.26859878  -4.7113e-13 -3.2605559e-13     57.10648     57.10648   -98.002466   -98.002466 2.6644032e-13 
       0.225      225    4143.0751   0.26768254 -3.042696e-13 -3.5503548e-13     57.10648     57.10648   -98.003013   -98.003013 4.7730362e-15 
       0.226      226    4143.0751   0.26675347 -2.7294661e-13 -2.4754788e-13     57.10648     57.10648   -98.003568   -98.003568  6.07155e-14 
       0.227      227    4143.0751   0.26583022 -7.1311051e-13 -4.8641361e-13     57.10648     57.10648   -98.004118   -98.004118 -3.3933939e-14 
       0.228      228    4143.0751   0.26492558 -1.0613564e-12 -6.8332585e-13     57.10648     57.10648   -98.004656   -98.004656 2.9749429e-14 
       0.229      229    4143.0751   0.26400306 -1.0642671e-12 -8.1449622e-13     57.10648     57.10648   -98.005205   -98.005205 8.6652457e-14 
        0.23      230    4143.0751   0.26307473 -1.3881006e-12 -5.8702092e-13     57.10648     57.10648   -98.005759   -98.005759 1.367683e-13 
       0.231      231    4143.0751   0.26216125 -1.4605352e-12 -7.6516593e-13     57.10648     57.10648   -98.006305   -98.006305 1.9148298e-14 
       0.232      232    4143.0751   0.26122566 -1.1927413e-12 -9.2951504e-13     57.10648     57.10648   -98.006861   -98.006861 7.8090277e-15 
       0.233      233    4143.0751   0.26031482 -1.347582e-12 -8.8303936e-13     57.10648     57.10648   -98.007403   -98.007403 8.2061334e-14 
       0.234      234    4143.0751   0.25940152 -1.1746296e-12 -5.8292335e-13     57.10648     57.10648   -98.007947   -98.007947 1.2373399e-14 
       0.235      235    4143.0751   0.25845837 -1.0686216e-12 -3.675131e-13     57.10648     57.10648    -98.00851    -98.00851 -1.1446932e-13 
       0.236      236    4143.0751   0.25754243 -1.0539899e-12 -8.8872079e-13     57.10648     57.10648   -98.009057   -98.009057 3.8060546e-15 
       0.237      237    4143.0751    0.2566202 -8.3903565e-13 -8.9076603e-13     57.10648     57.10648   -98.009605   -98.009605 -1.1047358e-13 
       0.238      238    4143.0751   0.25569141 -6.7482774e-13 -5.2895468e-13     57.10648     57.10648   -98.010158   -98.010158 2.5884436e-14 
       0.239      239    4143.0751   0.25477175 -6.7223103e-13 -1.5244602e-13     57.10648     57.10648   -98.010706   -98.010706 -1.6901649e-13 
        0.24      240    4143.0751   0.25384192 -5.6732376e-13 6.0061346e-14     57.10648     57.10648   -98.011261   -98.011261 -2.090178e-13 
       0.241      241    4143.0751    0.2529054 -8.8074683e-13 1.2483298e-13     57.10648     57.10648    -98.01182    -98.01182 -1.7078088e-13 
       0.242      242    4143.0751   0.25198713 -5.3338934e-13 -9.4606372e-14     57.10648     57.10648   -98.012366   -98.012366 -6.5767434e-14 
       0.243      243    4143.0751   0.25106751 2.053261e-13 -3.3843703e-13     57.10648     57.10648   -98.012913   -98.012913 -3.0685726e-14 
       0.244      244    4143.0751   0.25012396 1.268788e-13 -2.2469748e-13     57.10648     57.10648   -98.013476   -98.013476 4.7581587e-14 
       0.245      245    4143.0751   0.24920082 -4.2472241e-13 -4.5621133e-13     57.10648     57.10648   -98.014027   -98.014027 1.3619492e-13 
       0.246      246    4143.0751   0.24826732 -2.2141802e-13 -9.7190769e-13     57.10648     57.10648   -98.014583   -98.014583 8.5161945e-14 
       0.247      247    4143.0751   0.24733347 1.2665802e-13 -9.6602955e-13     57.10648     57.10648   -98.015138   -98.015138 3.9009185e-13 
       0.248      248    4143.0751   0.24642019 1.5105917e-13 -7.5208141e-13     57.10648     57.10648   -98.015682   -98.015682 2.2088629e-13 
       0.249      249    4143.0751   0.24547482 -8.586492e-14 -4.3282206e-13     57.10648     57.10648   -98.016246   -98.016246 1.6884189e-13 
        0.25      250    4143.0751   0.24454037 -2.7721749e-13 -5.4612473e-13     57.10648     57.10648   -98.016804   -98.016804 8.2965073e-14 
       0.251      251    4143.0751   0.24361756 -2.6352803e-13 -6.1767576e-13     57.10648     57.10648   -98.017354   -98.017354 2.3797579e-13 
       0.252      252    4143.0751   0.24267932 -1.2286128e-13 -8.3370232e-13     57.10648     57.10648   -98.017911   -98.017911 3.5440464e-14 
       0.253      253    4143.0751   0.24174923 -1.4750521e-13 -1.1238677e-12     57.10648     57.10648   -98.018465   -98.018465 2.3597483e-13 
       0.254      254    4143.0751   0.24081856 -3.6702646e-13 -1.0624693e-12     57.10648     57.10648   -98.019021   -98.019021 1.5596315e-13 
       0.255      255    4143.0751    0.2398765 -4.0241941e-13 -1.0031375e-12     57.10648     57.10648   -98.019583   -98.019583 1.5417846e-13 
       0.256      256    4143.0751   0.23894423 -7.6418648e-13 -5.4866973e-13     57.10648     57.10648   -98.020138   -98.020138 1.6523309e-13 
       0.257      257    4143.0751   0.23802495 -7.1767192e-13 -3.1656512e-13     57.10648     57.10648   -98.020685   -98.020685 2.5240977e-14 
       0.258      258    4143.0751     0.237078 -8.0824684e-13 -4.873286e-13     57.10648     57.10648   -98.021249   -98.021249 1.6383586e-13 
       0.259      259    4143.0751   0.23613734 -5.636061e-13 -2.5077873e-13     57.10648     57.10648   -98.021811   -98.021811 3.9091672e-13 
        0.26      260    4143.0751   0.23520605 -2.817816e-13 1.8415346e-13     57.10648     57.10648   -98.022366   -98.022366 6.2056284e-14 
       0.261      261    4143.0751   0.23425619 -5.6596096e-13 -2.2871765e-15     57.10648     57.10648   -98.022931   -98.022931 1.6283485e-13 
       0.262      262    4143.0751   0.23333242 -8.0042478e-13 -7.8242405e-13     57.10648     57.10648   -98.023481   -98.023481 3.1622911e-13 
       0.263      263    4143.0751   0.23239313 -4.4824563e-13 -8.7071556e-13     57.10648     57.10648   -98.024041   -98.024041 2.5919314e-13 
       0.264      264    4143.0751   0.23144005 -3.4886394e-13 -8.7379681e-13     57.10648     57.10648    -98.02461    -98.02461 1.2162968e-13 
       0.265      265    4143.0751   0.23051057 -5.1681862e-13 -1.3321978e-12     57.10648     57.10648   -98.025164   -98.025164 -1.3195137e-14 
       0.266      266    4143.0751   0.22956878 -7.7572217e-13 -1.5683042e-12     57.10648     57.10648   -98.025724   -98.025724 3.5957055e-13 
       0.267      267    4143.0751   0.22862487 -4.9719227e-13 -1.3043241e-12     57.10648     57.10648   -98.026286   -98.026286 2.8244657e-13 
       0.268      268    4143.0751   0.22768612 -8.228756e-14 -9.0118582e-13     57.10648     57.10648   -98.026846   -98.026846 2.6697052e-13 
       0.269      269    4143.0751   0.22673975 2.2939164e-14 -1.0671988e-12     57.10648     57.10648   -98.027411   -98.027411 2.7149259e-13 
        0.27      270    4143.0751   0.22579158 1.4015766e-13 -1.2666527e-12     57.10648     57.10648   -98.027976   -98.027976 2.8890754e-13 
       0.271      271    4143.0751   0.22486136 -2.6412383e-13 -5.6475001e-13     57.10648     57.10648   -98.028529   -98.028529 1.6613096e-13 
       0.272      272    4143.0751   0.22391788 -4.183889e-13 -3.4653682e-13     57.10648     57.10648    -98.02909    -98.02909 2.2613382e-13 
       0.273      273    4143.0751   0.22296263 -1.1914309e-13 -5.2551748e-13     57.10648     57.10648    -98.02966    -98.02966 2.0562953e-13 
       0.274      274    4143.0751   0.22202917 4.3971389e-13 -4.0702042e-13     57.10648     57.10648   -98.030218   -98.030218 3.5557354e-14 
       0.275      275    4143.0751   0.22107465 1.1235807e-13 -5.1771179e-13     57.10648     57.10648   -98.030786   -98.030786 1.4233541e-13 
       0.276      276    4143.0751   0.22013028 2.1180799e-13 -4.9692947e-13     57.10648     57.10648   -98.031348   -98.031348 1.8656264e-13 
       0.277      277    4143.0751   0.21919488 5.213346e-13 -5.5624388e-13     57.10648     57.10648   -98.031905   -98.031905 1.6397596e-13 
       0.278      278    4143.0751   0.21823204 4.5182549e-13 -7.3097364e-13     57.10648     57.10648    -98.03248    -98.03248 3.0080203e-13 
       0.279      279    4143.0751    0.2172866 4.3866416e-13 -5.300554e-13     57.10648     57.10648   -98.033044   -98.033044 3.8570015e-13 
        0.28      280    4143.0751   0.21634206 4.8613409e-13 -3.5866119e-13     57.10648     57.10648   -98.033606   -98.033606 2.0986366e-13 
       0.281      281    4143.0751   0.21538993 5.8497198e-13 -2.5461206e-13     57.10648     57.10648   -98.034172   -98.034172 1.4789825e-13 
       0.282      282    4143.0751   0.21444565 -3.1202665e-15 -1.1873179e-13     57.10648     57.10648   -98.034735   -98.034735 1.9833652e-13 
       0.283      283    4143.0751   0.21349527 4.1656671e-14 -4.7963219e-13     57.10648     57.10648   -98.035302   -98.035302 1.7161309e-13 
       0.284      284    4143.0751   0.21253501 7.3511326e-13 -1.041036e-12     57.10648     57.10648   -98.035875   -98.035875 9.346268e-14 
       0.285      285    4143.0751   0.21158853 5.7011333e-13 -8.2728782e-13     57.10648     57.10648   -98.036438   -98.036438 1.8931635e-13 
       0.286      286    4143.0751   0.21064678 -3.1473897e-13 -6.5380252e-13     57.10648     57.10648   -98.036998   -98.036998 2.0284692e-13 
       0.287      287    4143.0751   0.20968088 -2.8538585e-13 -1.3826434e-12     57.10648     57.10648   -98.037574   -98.037574 2.0569149e-13 
       0.288      288    4143.0751   0.20873209 5.3266504e-13 -1.3467517e-12     57.10648     57.10648   -98.038141   -98.038141 2.4846759e-13 
       0.289      289    4143.0751    0.2077795 4.9641104e-13 -5.7856815e-13     57.10648     57.10648   -98.038708   -98.038708 1.659198e-13 
        0.29      290    4143.0751   0.20681976 -1.2231467e-13 -6.2059971e-13     57.10648     57.10648   -98.039279   -98.039279   2.1007e-13 
       0.291      291    4143.0751   0.20588351 -1.8362618e-13 -1.5216333e-12     57.10648     57.10648   -98.039837   -98.039837 1.2646271e-13 
       0.292      292    4143.0751   0.20491939 2.8332576e-14 -1.4571887e-12     57.10648     57.10648   -98.040412   -98.040412 -3.572784e-14 
       0.293      293    4143.0751   0.20395415 -1.9305913e-13 -9.5528564e-13     57.10648     57.10648   -98.040988   -98.040988 2.1871624e-13 
       0.294      294    4143.0751   0.20300689 -4.5552589e-13 -7.8958626e-13     57.10648     57.10648   -98.041552   -98.041552 1.1014685e-13 
       0.295      295    4143.0751   0.20204966 -6.8624034e-14 -1.0598362e-12     57.10648     57.10648   -98.042121   -98.042121 1.0024113e-13 
       0.296      296    4143.0751   0.20109414 5.1570883e-13 -1.4253465e-12     57.10648     57.10648    -98.04269    -98.04269 2.4952282e-13 
       0.297      297    4143.0751   0.20013816 1.8234568e-13 -1.7037883e-12     57.10648     57.10648   -98.043261   -98.043261 2.0279937e-13 
       0.298      298    4143.0751   0.19917219 -2.2917719e-13 -1.1731479e-12     57.10648     57.10648   -98.043837   -98.043837 1.1769724e-13 
       0.299      299    4143.0751   0.19820898 -3.9983094e-13 -6.0559731e-13     57.10648     57.10648   -98.044411   -98.044411 9.9085067e-14 
         0.3      300    4143.0751   0.19726336 -1.7027651e-14 -8.014673e-13     57.10648     57.10648   -98.044973   -98.044973 2.3009299e-13 
       0.301      301    4143.0751   0.19629947 9.2488453e-14 -1.232505e-12     57.10648     57.10648   -98.045547   -98.045547 3.2968642e-13 
       0.302      302    4143.0751   0.19533478 -3.9982375e-13 -1.4355292e-12     57.10648     57.10648   -98.046123   -98.046123 1.9955905e-13 
       0.303      303    4143.0751   0.19438248 -1.0421395e-12 -9.8024773e-13     57.10648     57.10648   -98.046691   -98.046691 2.0771222e-13 
       0.304      304    4143.0751   0.19341278 -1.0670943e-12 -1.1850741e-12     57.10648     57.10648   -98.047269   -98.047269 2.4058349e-13 
       0.305      305    4143.0751   0.19246337 -1.1902581e-12 -1.2868305e-12     57.10648     57.10648   -98.047833   -98.047833 2.3979935e-13 
       0.306      306    4143.0751    0.1915048 -1.3593645e-12 -1.0078449e-12     57.10648     57.10648   -98.048405   -98.048405 1.3305775e-13 
       0.307      307    4143.0751   0.19052745 -1.0621695e-12 -1.1892637e-12     57.10648     57.10648   -98.048988   -98.048988 2.5640889e-13 
       0.308      308    4143.0751   0.18957055 -6.0439206e-13 -1.2646686e-12     57.10648     57.10648   -98.049559   -98.049559 2.4714998e-13 
       0.309      309    4143.0751   0.18860803 -2.3957048e-13 -1.4567778e-12     57.10648     57.10648   -98.050131   -98.050131 1.6339598e-13 
        0.31      310    4143.0751    0.1876427 -7.9351879e-13 -1.11681e-12     57.10648     57.10648   -98.050706   -98.050706 7.6034694e-14 
       0.311      311    4143.0751     0.186682 -8.6569414e-13 -5.8058157e-13     57.10648     57.10648   -98.051278   -98.051278 3.0154136e-13 
       0.312      312    4143.0751   0.18571491 -5.6160644e-13 -9.3584092e-13     57.10648     57.10648   -98.051856   -98.051856 1.442772e-13 
       0.313      313    4143.0751    0.1847426 -6.7578464e-13 -1.5475976e-12     57.10648     57.10648   -98.052435   -98.052435 1.6108122e-13 
       0.314      314    4143.0751   0.18378638 -8.1786349e-13 -1.945918e-12     57.10648     57.10648   -98.053004   -98.053004 1.4155679e-13 
       0.315      315    4143.0751   0.18282671 -9.5613317e-13 -1.5139997e-12     57.10648     57.10648   -98.053575   -98.053575 2.0425577e-13 
       0.316      316    4143.0751   0.18185094 -6.2075073e-13 -1.3113739e-12     57.10648     57.10648   -98.054157   -98.054157 2.774631e-13 
       0.317      317    4143.0751   0.18088962 -4.032691e-13 -1.8655185e-12     57.10648     57.10648   -98.054731   -98.054731 1.8476652e-13 
       0.318      318    4143.0751   0.17991494 -8.3209955e-13 -2.2548834e-12     57.10648     57.10648   -98.055312   -98.055312 4.424718e-15 
       0.319      319    4143.0751   0.17894796 -1.1032604e-12 -2.6231742e-12     57.10648     57.10648   -98.055887   -98.055887 2.8947181e-13 
        0.32      320    4143.0751   0.17799134 -7.2958999e-13 -2.3638743e-12     57.10648     57.10648   -98.056457   -98.056457 1.2096412e-13 
       0.321      321    4143.0751   0.17700954 -3.8271012e-13 -1.8526573e-12     57.10648     57.10648   -98.057042   -98.057042 1.9150549e-13 
       0.322      322    4143.0751   0.17604263 -8.5327198e-13 -1.3317231e-12     57.10648     57.10648   -98.057619   -98.057619 2.7362846e-13 
       0.323      323    4143.0751   0.17507911 -4.5134586e-13 -6.9830579e-13     57.10648     57.10648   -98.058193   -98.058193 2.4899494e-13 
       0.324      324    4143.0751   0.17410612 7.9277465e-14 -5.6330307e-13     57.10648     57.10648   -98.058772   -98.058772 2.6702038e-13 
       0.325      325    4143.0751   0.17313906 -4.9287551e-13 -1.1578125e-12     57.10648     57.10648   -98.059348   -98.059348 7.7503181e-14 
       0.326      326    4143.0751   0.17216791 -9.9849426e-13 -1.1532031e-12     57.10648     57.10648   -98.059928   -98.059928 1.7268023e-13 
       0.327      327    4143.0751   0.17119026 -9.3153291e-13 -1.1250583e-12     57.10648     57.10648   -98.060511   -98.060511 6.7538833e-14 
       0.328      328    4143.0751   0.17022237 -6.9849551e-13 -1.4640682e-12     57.10648     57.10648   -98.061087   -98.061087 -2.6842591e-14 
       0.329      329    4143.0751    0.1692596 -5.1118633e-13 -1.5801878e-12     57.10648     57.10648    -98.06166    -98.06166 2.8381201e-13 
        0.33      330    4143.0751   0.16827689 6.3855922e-14 -1.4617876e-12     57.10648     57.10648   -98.062245   -98.062245 3.8700116e-14 
       0.331      331    4143.0751   0.16730656 -5.1273766e-14 -8.3767553e-13     57.10648     57.10648   -98.062824   -98.062824 9.8466028e-14 
       0.332      332    4143.0751   0.16633594 -4.4668655e-13 -1.2551336e-12     57.10648     57.10648   -98.063403   -98.063403 2.0888652e-13 
       0.333      333    4143.0751   0.16535564 -4.823242e-13 -1.2444549e-12     57.10648     57.10648   -98.063986   -98.063986 1.6565963e-15 
       0.334      334    4143.0751   0.16439429 1.7055145e-13 -1.2400991e-12     57.10648     57.10648   -98.064559   -98.064559 2.9201944e-13 
       0.335      335    4143.0751   0.16341279 -1.3537039e-13 -1.4643817e-12     57.10648     57.10648   -98.065144   -98.065144 2.4742607e-13 
       0.336      336    4143.0751   0.16243218 -8.3507275e-13 -1.8814359e-12     57.10648     57.10648   -98.065729   -98.065729 1.7354552e-13 
       0.337      337    4143.0751   0.16146739 -4.3443082e-13 -1.8627654e-12     57.10648     57.10648   -98.066304   -98.066304 2.6662891e-13 
       0.338      338    4143.0751   0.16049106 2.4309351e-13 -1.9965218e-12     57.10648     57.10648   -98.066885   -98.066885 2.028637e-13 
       0.339      339    4143.0751   0.15951849 5.4801333e-14 -2.2670565e-12     57.10648     57.10648   -98.067464   -98.067464 2.077199e-13 
        0.34      340    4143.0751    0.1585433 -5.8517652e-14 -2.6719751e-12     57.10648     57.10648   -98.068046   -98.068046 2.1736851e-13 
       0.341      341    4143.0751   0.15755893 1.6252689e-13 -2.6815551e-12     57.10648     57.10648   -98.068633   -98.068633 3.0168655e-13 
       0.342      342    4143.0751   0.15658001 2.207482e-13 -2.6115118e-12     57.10648     57.10648   -98.069216   -98.069216 6.4428689e-14 
       0.343      343    4143.0751   0.15561451 -2.7141145e-13 -2.1599628e-12     57.10648     57.10648    -98.06979    -98.06979 1.9630424e-13 
       0.344      344    4143.0751   0.15463417 -3.5562685e-13 -1.8137342e-12     57.10648     57.10648   -98.070374   -98.070374 1.548648e-13 
       0.345      345    4143.0751   0.15365177 -2.9585709e-13 -2.0732774e-12     57.10648     57.10648   -98.070961   -98.070961 1.1848221e-13 
       0.346      346    4143.0751   0.15268095 2.9979137e-13 -2.6555508e-12     57.10648     57.10648    -98.07154    -98.07154 9.6856941e-14 
       0.347      347    4143.0751   0.15169699 4.9865279e-13 -2.416911e-12     57.10648     57.10648   -98.072126   -98.072126 5.672635e-14 
       0.348      348    4143.0751   0.15073389 1.7713354e-13 -2.2233476e-12     57.10648     57.10648   -98.072699   -98.072699 8.071607e-14 
       0.349      349    4143.0751   0.14977811 3.489113e-14 -2.070388e-12     57.10648     57.10648   -98.073268   -98.073268 6.7832592e-14 
        0.35      350    4143.0751    0.1488385 1.3312273e-14 -2.1136109e-12     57.10648     57.10648   -98.073829   -98.073829 2.2815246e-14 
       0.351      351    4143.0751    0.1479741 1.9704985e-13 -2.1252208e-12     57.10648     57.10648   -98.074344   -98.074344 5.7087777e-14 
       0.352      352    4143.0751   0.14719992 2.9673001e-13 -1.9801636e-12     57.10648     57.10648   -98.074805   -98.074805 1.3925349e-13 
       0.353      353    4143.0751   0.14657014 6.5962323e-14 -2.2178209e-12     57.10648     57.10648    -98.07518    -98.07518 2.8019867e-13 
       0.354      354    4143.0751   0.14611053 -2.7798377e-13 -1.9842065e-12     57.10648     57.10648   -98.075454   -98.075454 2.1358625e-13 
       0.355      355    4143.0751   0.14580121 -2.8563559e-13 -1.9940846e-12     57.10648     57.10648   -98.075639   -98.075639 4.7620506e-14 
       0.356      356    4143.0751   0.14560679 4.0229412e-14 -2.128988e-12     57.10648     57.10648   -98.075754   -98.075754 5.6589915e-14 
       0.357      357    4143.0751   0.14547532 8.3456981e-14 -2.121735e-12     57.10648     57.10648   -98.075832   -98.075832 2.2242017e-14 
       0.358      358    4143.0751   0.14535418 1.6036889e-13 -1.9530563e-12     57.10648     57.10648   -98.075904   -98.075904 1.5631984e-13 
       0.359      359    4143.0751   0.14517653 1.4678083e-13 -1.8739898e-12     57.10648     57.10648    -98.07601    -98.07601 4.4745493e-14 
Loop time of 12.0213 on 128 procs for 359 steps with 360800 atoms

91.3% CPU use with 128 MPI tasks x 1 OpenMP threads

Minimization stats:
  Stopping criterion = energy tolerance
  Energy initial, next-to-last, final = 
     -1486645.77951318  -1486647.82549146  -1486647.82549146
  Force two-norm initial, final = 7.1080974 7.3537641e-05
  Force max component initial, final = 0.19826945 6.0701234e-07
  Final line search alpha, max atom move = 1.0000000 6.0701234e-07
  Iterations, force evaluations = 359 718

MPI task timing breakdown:
Section |  min time  |  avg time  |  max time  |%varavg| %total
---------------------------------------------------------------
Pair    | 0.6381     | 2.6345     | 6.8859     | 155.6 | 21.92
Neigh   | 0          | 0          | 0          |   0.0 |  0.00
Comm    | 0.024272   | 0.71174    | 2.2276     | 113.6 |  5.92
Output  | 0.35583    | 0.44891    | 0.49517    |   6.4 |  3.73
Modify  | 0          | 0          | 0          |   0.0 |  0.00
Other   |            | 8.226      |            |       | 68.43

Nlocal:        2818.75 ave        9200 max           0 min
Histogram: 88 0 0 0 0 0 0 0 1 39
Nghost:        3899.30 ave       13317 max           0 min
Histogram: 87 1 0 0 0 0 2 0 0 38
Neighs:         0.00000 ave           0 max           0 min
Histogram: 128 0 0 0 0 0 0 0 0 0
FullNghs:      472488.0 ave  1.5456e+06 max           0 min
Histogram: 88 0 0 0 0 0 0 1 0 39

Total # of neighbors = 60478400
Ave neighs/atom = 167.62306
Neighbor list builds = 0
Dangerous builds = 0
ERROR on proc 0: Substitution for illegal variable p0 (../input.cpp:617)
ERROR on proc 1: Substitution for illegal variable p0 (../input.cpp:617)
ERROR on proc 12: Substitution for illegal variable p0 (../input.cpp:617)
ERROR on proc 2: Substitution for illegal variable p0 (../input.cpp:617)
ERROR on proc 3: Substitution for illegal variable p0 (../input.cpp:617)
ERROR on proc 4: Substitution for illegal variable p0 (../input.cpp:617)
ERROR on proc 5: Substitution for illegal variable p0 (../input.cpp:617)
ERROR on proc 6: Substitution for illegal variable p0 (../input.cpp:617)
ERROR on proc 7: Substitution for illegal variable p0 (../input.cpp:617)
ERROR on proc 8: Substitution for illegal variable p0 (../input.cpp:617)
ERROR on proc 9: Substitution for illegal variable p0 (../input.cpp:617)
ERROR on proc 10: Substitution for illegal variable p0 (../input.cpp:617)
ERROR on proc 11: Substitution for illegal variable p0 (../input.cpp:617)
ERROR on proc 13: Substitution for illegal variable p0 (../input.cpp:617)
ERROR on proc 14: Substitution for illegal variable p0 (../input.cpp:617)
ERROR on proc 15: Substitution for illegal variable p0 (../input.cpp:617)
ERROR on proc 16: Substitution for illegal variable p0 (../input.cpp:617)
ERROR on proc 17: Substitution for illegal variable p0 (../input.cpp:617)
ERROR on proc 18: Substitution for illegal variable p0 (../input.cpp:617)
ERROR on proc 19: Substitution for illegal variable p0 (../input.cpp:617)
ERROR on proc 20: Substitution for illegal variable p0 (../input.cpp:617)
ERROR on proc 21: Substitution for illegal variable p0 (../input.cpp:617)
ERROR on proc 22: Substitution for illegal variable p0 (../input.cpp:617)
ERROR on proc 23: Substitution for illegal variable p0 (../input.cpp:617)
ERROR on proc 24: Substitution for illegal variable p0 (../input.cpp:617)
ERROR on proc 25: Substitution for illegal variable p0 (../input.cpp:617)
ERROR on proc 26: Substitution for illegal variable p0 (../input.cpp:617)
ERROR on proc 27: Substitution for illegal variable p0 (../input.cpp:617)
ERROR on proc 28: Substitution for illegal variable p0 (../input.cpp:617)
ERROR on proc 29: Substitution for illegal variable p0 (../input.cpp:617)
ERROR on proc 30: Substitution for illegal variable p0 (../input.cpp:617)
ERROR on proc 31: Substitution for illegal variable p0 (../input.cpp:617)
ERROR on proc 111: Substitution for illegal variable p0 (../input.cpp:617)
ERROR on proc 34: Substitution for illegal variable p0 (../input.cpp:617)
ERROR on proc 116: Substitution for illegal variable p0 (../input.cpp:617)
ERROR on proc 117: Substitution for illegal variable p0 (../input.cpp:617)
ERROR on proc 97: Substitution for illegal variable p0 (../input.cpp:617)
ERROR on proc 65: Substitution for illegal variable p0 (../input.cpp:617)
ERROR on proc 105: Substitution for illegal variable p0 (../input.cpp:617)
ERROR on proc 35: Substitution for illegal variable p0 (../input.cpp:617)
ERROR on proc 107: Substitution for illegal variable p0 (../input.cpp:617)
ERROR on proc 118: Substitution for illegal variable p0 (../input.cpp:617)
ERROR on proc 66: Substitution for illegal variable p0 (../input.cpp:617)
ERROR on proc 121: Substitution for illegal variable p0 (../input.cpp:617)
ERROR on proc 122: Substitution for illegal variable p0 (../input.cpp:617)
ERROR on proc 76: Substitution for illegal variable p0 (../input.cpp:617)
ERROR on proc 37: Substitution for illegal variable p0 (../input.cpp:617)
ERROR on proc 123: Substitution for illegal variable p0 (../input.cpp:617)
ERROR on proc 124: Substitution for illegal variable p0 (../input.cpp:617)
ERROR on proc 38: Substitution for illegal variable p0 (../input.cpp:617)
ERROR on proc 126: Substitution for illegal variable p0 (../input.cpp:617)
ERROR on proc 77: Substitution for illegal variable p0 (../input.cpp:617)
ERROR on proc 39: Substitution for illegal variable p0 (../input.cpp:617)
ERROR on proc 127: Substitution for illegal variable p0 (../input.cpp:617)
ERROR on proc 78: Substitution for illegal variable p0 (../input.cpp:617)
ERROR on proc 43: Substitution for illegal variable p0 (../input.cpp:617)
ERROR on proc 96: Substitution for illegal variable p0 (../input.cpp:617)
ERROR on proc 75: Substitution for illegal variable p0 (../input.cpp:617)
ERROR on proc 55: Substitution for illegal variable p0 (../input.cpp:617)
ERROR on proc 98: Substitution for illegal variable p0 (../input.cpp:617)
ERROR on proc 79: Substitution for illegal variable p0 (../input.cpp:617)
ERROR on proc 57: Substitution for illegal variable p0 (../input.cpp:617)
ERROR on proc 99: Substitution for illegal variable p0 (../input.cpp:617)
ERROR on proc 80: Substitution for illegal variable p0 (../input.cpp:617)
ERROR on proc 36: Substitution for illegal variable p0 (../input.cpp:617)
ERROR on proc 101: Substitution for illegal variable p0 (../input.cpp:617)
ERROR on proc 81: Substitution for illegal variable p0 (../input.cpp:617)
ERROR on proc 41: Substitution for illegal variable p0 (../input.cpp:617)
ERROR on proc 103: Substitution for illegal variable p0 (../input.cpp:617)
ERROR on proc 93: Substitution for illegal variable p0 (../input.cpp:617)
ERROR on proc 46: Substitution for illegal variable p0 (../input.cpp:617)
ERROR on proc 108: Substitution for illegal variable p0 (../input.cpp:617)
ERROR on proc 95: Substitution for illegal variable p0 (../input.cpp:617)
ERROR on proc 47: Substitution for illegal variable p0 (../input.cpp:617)
ERROR on proc 109: Substitution for illegal variable p0 (../input.cpp:617)
ERROR on proc 64: Substitution for illegal variable p0 (../input.cpp:617)
ERROR on proc 48: Substitution for illegal variable p0 (../input.cpp:617)
ERROR on proc 113: Substitution for illegal variable p0 (../input.cpp:617)
ERROR on proc 67: Substitution for illegal variable p0 (../input.cpp:617)
ERROR on proc 49: Substitution for illegal variable p0 (../input.cpp:617)
ERROR on proc 119: Substitution for illegal variable p0 (../input.cpp:617)
ERROR on proc 68: Substitution for illegal variable p0 (../input.cpp:617)
ERROR on proc 52: Substitution for illegal variable p0 (../input.cpp:617)
ERROR on proc 120: Substitution for illegal variable p0 (../input.cpp:617)
ERROR on proc 69: Substitution for illegal variable p0 (../input.cpp:617)
ERROR on proc 54: Substitution for illegal variable p0 (../input.cpp:617)
ERROR on proc 125: Substitution for illegal variable p0 (../input.cpp:617)
ERROR on proc 70: Substitution for illegal variable p0 (../input.cpp:617)
ERROR on proc 32: Substitution for illegal variable p0 (../input.cpp:617)
ERROR on proc 100: Substitution for illegal variable p0 (../input.cpp:617)
ERROR on proc 71: Substitution for illegal variable p0 (../input.cpp:617)
ERROR on proc 33: Substitution for illegal variable p0 (../input.cpp:617)
ERROR on proc 102: Substitution for illegal variable p0 (../input.cpp:617)
ERROR on proc 82: Substitution for illegal variable p0 (../input.cpp:617)
ERROR on proc 50: Substitution for illegal variable p0 (../input.cpp:617)
ERROR on proc 104: Substitution for illegal variable p0 (../input.cpp:617)
ERROR on proc 83: Substitution for illegal variable p0 (../input.cpp:617)
ERROR on proc 51: Substitution for illegal variable p0 (../input.cpp:617)
ERROR on proc 106: Substitution for illegal variable p0 (../input.cpp:617)
ERROR on proc 84: Substitution for illegal variable p0 (../input.cpp:617)
ERROR on proc 53: Substitution for illegal variable p0 (../input.cpp:617)
ERROR on proc 110: Substitution for illegal variable p0 (../input.cpp:617)
ERROR on proc 85: Substitution for illegal variable p0 (../input.cpp:617)
ERROR on proc 56: Substitution for illegal variable p0 (../input.cpp:617)
ERROR on proc 112: Substitution for illegal variable p0 (../input.cpp:617)
ERROR on proc 87: Substitution for illegal variable p0 (../input.cpp:617)
ERROR on proc 59: Substitution for illegal variable p0 (../input.cpp:617)
ERROR on proc 114: Substitution for illegal variable p0 (../input.cpp:617)
ERROR on proc 88: Substitution for illegal variable p0 (../input.cpp:617)
ERROR on proc 60: Substitution for illegal variable p0 (../input.cpp:617)
ERROR on proc 115: Substitution for illegal variable p0 (../input.cpp:617)
ERROR on proc 89: Substitution for illegal variable p0 (../input.cpp:617)
--------------------------------------------------------------------------
MPI_ABORT was invoked on rank 107 in communicator MPI_COMM_WORLD
with errorcode 1.

NOTE: invoking MPI_ABORT causes Open MPI to kill all MPI processes.
You may or may not see output from other processes, depending on
exactly when Open MPI kills them.
--------------------------------------------------------------------------
ERROR on proc 61: Substitution for illegal variable p0 (../input.cpp:617)
ERROR on proc 91: Substitution for illegal variable p0 (../input.cpp:617)
ERROR on proc 62: Substitution for illegal variable p0 (../input.cpp:617)
ERROR on proc 92: Substitution for illegal variable p0 (../input.cpp:617)
ERROR on proc 63: Substitution for illegal variable p0 (../input.cpp:617)
ERROR on proc 94: Substitution for illegal variable p0 (../input.cpp:617)
ERROR on proc 40: Substitution for illegal variable p0 (../input.cpp:617)
ERROR on proc 86: Substitution for illegal variable p0 (../input.cpp:617)
ERROR on proc 42: Substitution for illegal variable p0 (../input.cpp:617)
ERROR on proc 90: Substitution for illegal variable p0 (../input.cpp:617)
ERROR on proc 44: Substitution for illegal variable p0 (../input.cpp:617)
ERROR on proc 72: Substitution for illegal variable p0 (../input.cpp:617)
ERROR on proc 45: Substitution for illegal variable p0 (../input.cpp:617)
ERROR on proc 73: Substitution for illegal variable p0 (../input.cpp:617)
ERROR on proc 58: Substitution for illegal variable p0 (../input.cpp:617)
ERROR on proc 74: Substitution for illegal variable p0 (../input.cpp:617)
[r229n12:94954] 127 more processes have sent help message help-mpi-api.txt / mpi-abort
[r229n12:94954] Set MCA parameter "orte_base_help_aggregate" to 0 to see all help / error messages
