LAMMPS (29 Sep 2021 - Update 1)
KOKKOS mode is enabled (../kokkos.cpp:97)
  will use up to 1 GPU(s) per node
  using 1 OpenMP thread(s) per MPI task
package kokkos
#################################
#two psrts have to be corrected
#Vacancy >> type : Fe Fe Fe Fe Fe Fe Fe Fe Fe
#Cu      >> type : Fe Fe Fe Fe Fe Fe Fe Fe Fe Cu
#################################

variable npt_temp      equal 0.1

variable atmos        equal 1.01325                    # Atomic Mass

units       metal
atom_style  atomic
boundary p p p

#timestep .0001
timestep    0.001
#timestep    0.01
#timestep 0.1
read_data   ./Fe.lat
Reading data file ...
  orthogonal box = (0.0000000 0.0000000 0.0000000) to (4143.0751 57.106480 57.106480)
  64 by 1 by 1 MPI processor grid
  reading atoms ...
  360800 atoms
  read_data CPU = 5.109 seconds

pair_style  eam/alloy
pair_coeff  * * ./FeCuNi.eam.alloy Fe Fe Fe Fe Fe Fe Fe Fe Fe
#pair_coeff  * * ./new_potential/FeCuNi.eam.alloy Fe Fe Fe Fe Cu
#mass        *4 ${mass}
#pair_style  aenet
#pair_coeff  * * v03 Fe 10sw-10sw.nn Fe Fe Fe Fe Fe
#pair_coeff  * * ./new_potential/FeCuNi.eam.alloy Fe Fe Fe Fe Cu
#mass        *4 ${mass}
mass        * 55.845
#mass        5 58.454 correct value!!!

#group naming
group source type 2
800 atoms in group source
group detector type 3
800 atoms in group detector
group edge type 5
400 atoms in group edge
group edge_buf type 7
400 atoms in group edge_buf
group buffer type 7 8 9
120000 atoms in group buffer
#group longage type 9

variable s equal xcm(source,x)
variable d equal xcm(detector,x)
variable g equal xcm(edge,x)
variable t equal temp
variable p equal press
variable v equal vol
variable e equal etotal
variable i equal time
variable FIG string iranai
variable f equal fcm(detector,x)
variable l equal vcm(detector,x)

##############################################
variable rescaleSteps equal 0
variable relaxationSteps equal 0
variable initialSteps equal ${rescaleSteps}+${relaxationSteps}
variable initialSteps equal 0+${relaxationSteps}
variable initialSteps equal 0+0
##############################################

#dump fuck all atom 1 strain.dump
#dump_modify fuck scale no

thermo 1
thermo_style custom time step lx pxx pxy pxz ly lz pyy pzz pyz etotal temp vol

#fix extra all print 1 "$i $s $d $g $l $f $t $v $e $p" file outp.txt

fix nve1 all nve
minimize 1.0e-30 1.0e-30 100000 100000
WARNING: Using 'neigh_modify every 1 delay 0 check yes' setting during minimization (../min.cpp:188)
Neighbor list info ...
  update every 1 steps, delay 0 steps, check yes
  max neighbors/atom: 2000, page size: 100000
  master list distance cutoff = 7.6
  ghost atom cutoff = 7.6
  binsize = 7.6, bins = 546 8 8
  1 neighbor lists, perpetual/occasional/extra = 1 0 0
  (1) pair eam/alloy/kk, perpetual
      attributes: full, newton off, kokkos_device
      pair build: full/bin/kk/device
      stencil: full/bin/3d
      bin: kk/device
WARNING: Fixes cannot yet send exchange data in Kokkos communication, switching to classic exchange/border communication (../comm_kokkos.cpp:581)
Per MPI rank memory allocation (min/avg/max) = 2.376 | 4.616 | 9.668 Mbytes
Time Step Lx Pxx Pxy Pxz Ly Lz Pyy Pzz Pyz TotEng Temp Volume 
           0        0    4143.0751    12.766153 -4.5067928e-14 -2.1629655e-14     57.10648     57.10648   -85.456504   -85.456504 -1.7125953e-14   -1486645.8            0     13511190 
       0.001        1    4143.0751    4.9624194 -4.1013713e-14 -2.0644701e-14     57.10648     57.10648   -95.172201   -95.172201 -4.8544249e-13   -1486647.7            0     13511190 
       0.002        2    4143.0751    2.7193318 -5.4490745e-14 -1.1054292e-14     57.10648     57.10648   -97.006352   -97.006352 3.9395435e-13   -1486647.7            0     13511190 
       0.003        3    4143.0751    3.2072967 -6.4795172e-14 -7.6308612e-14     57.10648     57.10648   -96.140203   -96.140203 -1.2929253e-13   -1486647.8            0     13511190 
       0.004        4    4143.0751    2.6400573 4.972854e-14 1.2231447e-13     57.10648     57.10648   -96.501525   -96.501525 4.3555708e-13   -1486647.8            0     13511190 
       0.005        5    4143.0751    1.8692697 -8.4821692e-14 3.5848324e-14     57.10648     57.10648   -97.038029   -97.038029 3.0443442e-14   -1486647.8            0     13511190 
       0.006        6    4143.0751    1.5880349 5.9016701e-14 -9.4698152e-14     57.10648     57.10648   -97.222835   -97.222835 -4.8239828e-13   -1486647.8            0     13511190 
       0.007        7    4143.0751    1.4304795 1.5516621e-13 1.2038779e-13     57.10648     57.10648   -97.302236   -97.302236 1.6182223e-13   -1486647.8            0     13511190 
       0.008        8    4143.0751    1.3102667 8.7485671e-14 5.4087984e-14     57.10648     57.10648   -97.373091   -97.373091 -7.296082e-14   -1486647.8            0     13511190 
       0.009        9    4143.0751    1.1651506 -1.5705371e-14 -1.2466278e-13     57.10648     57.10648   -97.467596   -97.467596 2.2633611e-13   -1486647.8            0     13511190 
        0.01       10    4143.0751    1.0801049 -1.8403484e-13 1.4663101e-13     57.10648     57.10648   -97.519517   -97.519517 5.5160402e-14   -1486647.8            0     13511190 
       0.011       11    4143.0751    1.0182961 7.1226567e-15 4.2241153e-14     57.10648     57.10648    -97.55383    -97.55383 -4.1253444e-14   -1486647.8            0     13511190 
       0.012       12    4143.0751   0.96492776 -1.6062358e-13 2.1044637e-14     57.10648     57.10648   -97.585187   -97.585187 -2.2421553e-14   -1486647.8            0     13511190 
       0.013       13    4143.0751   0.90630688 -4.1166853e-14 -3.113533e-13     57.10648     57.10648   -97.622306   -97.622306 -5.5286572e-14   -1486647.8            0     13511190 
       0.014       14    4143.0751   0.86458184 9.635884e-15 -2.5462996e-14     57.10648     57.10648   -97.647661   -97.647661 3.2840852e-14   -1486647.8            0     13511190 
       0.015       15    4143.0751   0.83242506 -2.3818272e-13 8.385966e-14     57.10648     57.10648   -97.665622   -97.665622 4.3892777e-14   -1486647.8            0     13511190 
       0.016       16    4143.0751   0.80214445 -1.3962434e-13 -4.3962932e-14     57.10648     57.10648   -97.683642   -97.683642 -5.9851593e-14   -1486647.8            0     13511190 
       0.017       17    4143.0751   0.77060995 -1.3787583e-13 1.438397e-13     57.10648     57.10648   -97.703317   -97.703317 1.1523811e-13   -1486647.8            0     13511190 
       0.018       18    4143.0751   0.74604836 -6.1089005e-14 -7.7037871e-15     57.10648     57.10648   -97.718075   -97.718075 8.7258979e-14   -1486647.8            0     13511190 
       0.019       19    4143.0751    0.7261273 5.8041915e-14 2.5716375e-14     57.10648     57.10648   -97.729394   -97.729394 -3.0518704e-14   -1486647.8            0     13511190 
        0.02       20    4143.0751    0.7065647 -1.2258589e-13 -6.8962305e-14     57.10648     57.10648   -97.741056   -97.741056 -2.0109413e-14   -1486647.8            0     13511190 
       0.021       21    4143.0751   0.68688536 -5.1031541e-14 6.1677353e-13     57.10648     57.10648   -97.753242   -97.753242 -2.7905737e-13   -1486647.8            0     13511190 
       0.022       22    4143.0751   0.67068924 -3.1121244e-13 7.1393346e-12     57.10648     57.10648   -97.762918   -97.762918 -2.9888139e-12   -1486647.8            0     13511190 
       0.023       23    4143.0751   0.65752908 -5.3382638e-13 4.7595314e-11     57.10648     57.10648   -97.770457   -97.770457 -1.9210055e-11   -1486647.8            0     13511190 
       0.024       24    4143.0751   0.64673095 -6.9896268e-13 1.6638498e-10     57.10648     57.10648   -97.776877   -97.776877 -6.2217795e-11   -1486647.8            0     13511190 
       0.025       25    4143.0751   0.63570286 4.7029101e-13 6.3034676e-11     57.10648     57.10648   -97.783616   -97.783616 -2.0014046e-11   -1486647.8            0     13511190 
       0.026       26    4143.0751   0.62405051 1.3060173e-12 1.5978483e-11     57.10648     57.10648   -97.790729   -97.790729 -2.4186407e-12   -1486647.8            0     13511190 
       0.027       27    4143.0751   0.61325773 4.4911376e-12 1.0769905e-11     57.10648     57.10648   -97.797032   -97.797032 1.3875077e-12   -1486647.8            0     13511190 
       0.028       28    4143.0751   0.60486926 1.5540426e-11 1.4722279e-11     57.10648     57.10648   -97.801912   -97.801912 6.0998131e-12   -1486647.8            0     13511190 
       0.029       29    4143.0751   0.59720868 1.0996332e-11 1.442114e-11     57.10648     57.10648   -97.806512   -97.806512 3.1127109e-12   -1486647.8            0     13511190 
        0.03       30    4143.0751   0.58818151 4.4425428e-13 8.2297521e-12     57.10648     57.10648   -97.812041   -97.812041 -9.9433949e-13   -1486647.8            0     13511190 
       0.031       31    4143.0751   0.57976926 1.4971586e-14 1.2081919e-11     57.10648     57.10648   -97.817077   -97.817077 -4.171469e-13   -1486647.8            0     13511190 
       0.032       32    4143.0751   0.57302995 5.2105163e-12 2.5154171e-11     57.10648     57.10648   -97.820988   -97.820988 4.6220021e-12   -1486647.8            0     13511190 
       0.033       33    4143.0751   0.56734265 6.2837044e-12 1.7221145e-11     57.10648     57.10648   -97.824328   -97.824328 4.5732463e-12   -1486647.8            0     13511190 
       0.034       34    4143.0751   0.55999514 4.4926338e-12 4.1162209e-12     57.10648     57.10648   -97.828776   -97.828776 3.0235956e-12   -1486647.8            0     13511190 
       0.035       35    4143.0751   0.55328097 7.9951717e-12 -8.6693491e-12     57.10648     57.10648   -97.832859   -97.832859 8.3280322e-12   -1486647.8            0     13511190 
       0.036       36    4143.0751   0.54796352 1.3309004e-11 -1.5007711e-11     57.10648     57.10648   -97.836005   -97.836005 1.5469319e-11   -1486647.8            0     13511190 
       0.037       37    4143.0751   0.54282085 5.8289981e-12 4.9949616e-12     57.10648     57.10648      -97.839      -97.839 5.9165904e-12   -1486647.8            0     13511190 
       0.038       38    4143.0751   0.53716628 3.7010767e-12 1.5429253e-11     57.10648     57.10648   -97.842354   -97.842354 4.7986651e-12   -1486647.8            0     13511190 
       0.039       39    4143.0751   0.53175419 4.6213585e-12 2.2957663e-11     57.10648     57.10648   -97.845645   -97.845645 7.5803141e-12   -1486647.8            0     13511190 
        0.04       40    4143.0751   0.52730319 4.7525411e-12 7.7539508e-12     57.10648     57.10648   -97.848334   -97.848334 4.0189076e-12   -1486647.8            0     13511190 
       0.041       41    4143.0751   0.52239814 3.7587108e-12 -2.8446828e-12     57.10648     57.10648   -97.851223   -97.851223 1.3321633e-12   -1486647.8            0     13511190 
       0.042       42    4143.0751    0.5179882 3.2690432e-12 -4.4236655e-12     57.10648     57.10648   -97.853802   -97.853802 3.2977054e-12   -1486647.8            0     13511190 
       0.043       43    4143.0751   0.51399067 1.1589064e-12 3.3978977e-12     57.10648     57.10648   -97.856194   -97.856194 4.7109337e-12   -1486647.8            0     13511190 
       0.044       44    4143.0751   0.50961513 6.1627597e-13 7.7218818e-12     57.10648     57.10648   -97.858851   -97.858851 2.080045e-12   -1486647.8            0     13511190 
       0.045       45    4143.0751   0.50535776 3.0904007e-12 1.0730431e-11     57.10648     57.10648   -97.861404   -97.861404 4.1993617e-12   -1486647.8            0     13511190 
       0.046       46    4143.0751   0.50178333 5.0257961e-12 8.8366648e-12     57.10648     57.10648     -97.8635     -97.8635 7.4486856e-12   -1486647.8            0     13511190 
       0.047       47    4143.0751   0.49840537 4.5770436e-13 1.5241996e-12     57.10648     57.10648   -97.865483   -97.865483 3.2086073e-12   -1486647.8            0     13511190 
       0.048       48    4143.0751   0.49440956 -2.0523355e-12 2.5128515e-13     57.10648     57.10648   -97.867886   -97.867886 1.6151372e-12   -1486647.8            0     13511190 
       0.049       49    4143.0751   0.49088295 -3.3080572e-12 1.461614e-12     57.10648     57.10648   -97.870022   -97.870022 2.261582e-12   -1486647.8            0     13511190 
        0.05       50    4143.0751   0.48774863 -3.0779148e-12  1.28387e-12     57.10648     57.10648   -97.871891   -97.871891 1.1186377e-12   -1486647.8            0     13511190 
       0.051       51    4143.0751   0.48441941 -2.4402166e-12 1.4162771e-13     57.10648     57.10648   -97.873842   -97.873842 5.5084336e-13   -1486647.8            0     13511190 
       0.052       52    4143.0751   0.48128837 -2.0852927e-12 -4.1660588e-13     57.10648     57.10648   -97.875695   -97.875695 1.349323e-12   -1486647.8            0     13511190 
       0.053       53    4143.0751   0.47830848 -1.8788083e-12 7.2432068e-13     57.10648     57.10648   -97.877492   -97.877492 9.4671008e-13   -1486647.8            0     13511190 
       0.054       54    4143.0751   0.47523032 -2.0730277e-12 1.6505232e-12     57.10648     57.10648   -97.879352   -97.879352 5.4841072e-13   -1486647.8            0     13511190 
       0.055       55    4143.0751   0.47223923 -3.4623697e-12 2.530859e-12     57.10648     57.10648   -97.881123   -97.881123 2.0891645e-12   -1486647.8            0     13511190 
       0.056       56    4143.0751   0.46972846 -3.8644239e-12 1.2927392e-12     57.10648     57.10648   -97.882597   -97.882597 3.0126173e-12   -1486647.8            0     13511190 
       0.057       57    4143.0751   0.46704018 -2.3867477e-12 -2.3309179e-13     57.10648     57.10648   -97.884194   -97.884194 1.9507851e-12   -1486647.8            0     13511190 
       0.058       58    4143.0751   0.46410991 -1.8602885e-12 6.9873447e-14     57.10648     57.10648   -97.885964   -97.885964 2.8813098e-12   -1486647.8            0     13511190 
       0.059       59    4143.0751   0.46162693 -3.0365135e-12  1.30611e-12     57.10648     57.10648   -97.887456   -97.887456 4.6112751e-12   -1486647.8            0     13511190 
        0.06       60    4143.0751   0.45916166 -3.6032021e-12 1.2476041e-12     57.10648     57.10648   -97.888913   -97.888913 3.5534531e-12   -1486647.8            0     13511190 
       0.061       61    4143.0751   0.45668942 -5.2515092e-12 1.6780683e-12     57.10648     57.10648   -97.890367   -97.890367 5.2055217e-12   -1486647.8            0     13511190 
       0.062       62    4143.0751   0.45433495 -1.0247217e-11 4.0350842e-12     57.10648     57.10648   -97.891775   -97.891775 1.0021302e-11   -1486647.8            0     13511190 
       0.063       63    4143.0751   0.45203293 -8.6861545e-12 3.6758239e-12     57.10648     57.10648   -97.893165   -97.893165 7.216877e-12   -1486647.8            0     13511190 
       0.064       64    4143.0751   0.44963765 -8.4893167e-12 3.8436823e-12     57.10648     57.10648   -97.894598   -97.894598 7.9194732e-12   -1486647.8            0     13511190 
       0.065       65    4143.0751   0.44745921 -1.1863929e-11 5.4399135e-12     57.10648     57.10648   -97.895881   -97.895881 1.4430771e-11   -1486647.8            0     13511190 
       0.066       66    4143.0751   0.44548862 -9.5967894e-12 4.3701577e-12     57.10648     57.10648   -97.897045   -97.897045 1.1677243e-11   -1486647.8            0     13511190 
       0.067       67    4143.0751   0.44322119 -7.1653114e-12 3.3706668e-12     57.10648     57.10648   -97.898404   -97.898404 8.8260589e-12   -1486647.8            0     13511190 
       0.068       68    4143.0751   0.44109843 -7.2816815e-12 3.8948338e-12     57.10648     57.10648   -97.899683   -97.899683 1.1398434e-11   -1486647.8            0     13511190 
       0.069       69    4143.0751   0.43915574 -5.2706433e-12 2.9399933e-12     57.10648     57.10648   -97.900842   -97.900842 8.9080515e-12   -1486647.8            0     13511190 
        0.07       70    4143.0751   0.43712555 -4.1505218e-12 1.4786554e-12     57.10648     57.10648   -97.902038   -97.902038 5.3181159e-12   -1486647.8            0     13511190 
       0.071       71    4143.0751   0.43521428 -5.3122085e-12 1.2545219e-12     57.10648     57.10648    -97.90317    -97.90317 6.635809e-12   -1486647.8            0     13511190 
       0.072       72    4143.0751   0.43332258 -3.8680464e-12 1.0974112e-12     57.10648     57.10648   -97.904306   -97.904306 4.736527e-12   -1486647.8            0     13511190 
       0.073       73    4143.0751   0.43135523 -2.3462442e-12 8.4458143e-13     57.10648     57.10648   -97.905491   -97.905491 2.2786223e-12   -1486647.8            0     13511190 
       0.074       74    4143.0751    0.4294867 -1.8939319e-12 1.1279396e-13     57.10648     57.10648     -97.9066     -97.9066 2.7874073e-12   -1486647.8            0     13511190 
       0.075       75    4143.0751   0.42780015 -1.4894556e-12 -7.4563273e-13     57.10648     57.10648   -97.907594   -97.907594 2.0963716e-12   -1486647.8            0     13511190 
       0.076       76    4143.0751   0.42598278 -9.5493309e-13 -1.0669664e-12     57.10648     57.10648   -97.908674   -97.908674 1.3917308e-12   -1486647.8            0     13511190 
       0.077       77    4143.0751   0.42412249 -4.8357305e-13 -1.7132907e-12     57.10648     57.10648   -97.909793   -97.909793 2.3111013e-12   -1486647.8            0     13511190 
       0.078       78    4143.0751   0.42249031 -3.7460903e-13 -1.3273556e-12     57.10648     57.10648   -97.910773   -97.910773 2.6603146e-12   -1486647.8            0     13511190 
       0.079       79    4143.0751    0.4207767 -7.7816947e-13 -4.0979317e-13     57.10648     57.10648   -97.911788   -97.911788 1.7348988e-12   -1486647.8            0     13511190 
        0.08       80    4143.0751   0.41913687 -1.0551026e-12 -4.854243e-13     57.10648     57.10648   -97.912756   -97.912756 2.4570863e-12   -1486647.8            0     13511190 
       0.081       81    4143.0751   0.41757359 -1.0081403e-12 -1.105309e-12     57.10648     57.10648   -97.913688   -97.913688 2.4984137e-12   -1486647.8            0     13511190 
       0.082       82    4143.0751   0.41587689 -7.4343499e-13 -1.1701853e-12     57.10648     57.10648   -97.914709   -97.914709 1.3884026e-12   -1486647.8            0     13511190 
       0.083       83    4143.0751    0.4142313 -1.3223167e-12 -1.7958237e-12     57.10648     57.10648   -97.915693   -97.915693 1.9606996e-12   -1486647.8            0     13511190 
       0.084       84    4143.0751   0.41273855 -1.432567e-12 -2.0977675e-12     57.10648     57.10648   -97.916576   -97.916576 2.4956528e-12   -1486647.8            0     13511190 
       0.085       85    4143.0751   0.41124657 -1.206702e-12 -1.1317227e-12     57.10648     57.10648   -97.917458   -97.917458 1.917813e-12   -1486647.8            0     13511190 
       0.086       86    4143.0751   0.40966273 -2.192408e-12 -1.1921609e-12     57.10648     57.10648   -97.918405   -97.918405 2.6622643e-12   -1486647.8            0     13511190 
       0.087       87    4143.0751   0.40819472 -2.4753049e-12 -1.5293312e-12     57.10648     57.10648   -97.919288   -97.919288 2.9380252e-12   -1486647.8            0     13511190 
       0.088       88    4143.0751   0.40670797 -1.4751783e-12 -1.481517e-12     57.10648     57.10648   -97.920176   -97.920176 2.6734504e-12   -1486647.8            0     13511190 
       0.089       89    4143.0751   0.40523281 -1.1639492e-12 -1.3751964e-12     57.10648     57.10648   -97.921047   -97.921047 3.1227623e-12   -1486647.8            0     13511190 
        0.09       90    4143.0751    0.4038865 -1.1998972e-12 -1.1357475e-12     57.10648     57.10648   -97.921845   -97.921845 3.7461717e-12   -1486647.8            0     13511190 
       0.091       91    4143.0751   0.40242227 -9.0214303e-13 -1.0009049e-12     57.10648     57.10648   -97.922722   -97.922722 2.5655715e-12   -1486647.8            0     13511190 
       0.092       92    4143.0751    0.4009716 -1.0541598e-12 -1.8486096e-12     57.10648     57.10648   -97.923593   -97.923593 2.5118814e-12   -1486647.8            0     13511190 
       0.093       93    4143.0751    0.3996362 -1.0943791e-12 -2.2312846e-12     57.10648     57.10648   -97.924388   -97.924388 2.6185334e-12   -1486647.8            0     13511190 
       0.094       94    4143.0751   0.39827927 -3.5369387e-13 -1.6608313e-12     57.10648     57.10648    -97.92519    -97.92519 1.5112441e-12   -1486647.8            0     13511190 
       0.095       95    4143.0751   0.39691126 -4.2130117e-13 -1.5421709e-12     57.10648     57.10648   -97.926003   -97.926003 1.4759328e-12   -1486647.8            0     13511190 
       0.096       96    4143.0751   0.39558619 -4.7699927e-13 -1.299788e-12     57.10648     57.10648   -97.926797   -97.926797 1.3773869e-12   -1486647.8            0     13511190 
       0.097       97    4143.0751   0.39425356 -4.5872923e-13 -7.2325659e-13     57.10648     57.10648   -97.927597   -97.927597 1.1378414e-12   -1486647.8            0     13511190 
       0.098       98    4143.0751   0.39291543 -2.4580125e-13 -6.8312742e-13     57.10648     57.10648   -97.928391   -97.928391 1.3087894e-12   -1486647.8            0     13511190 
       0.099       99    4143.0751   0.39169685 -3.694715e-13 -8.6272961e-13     57.10648     57.10648   -97.929112   -97.929112 1.2748981e-12   -1486647.8            0     13511190 
         0.1      100    4143.0751   0.39041774 3.7917135e-14 -7.4524523e-13     57.10648     57.10648   -97.929873   -97.929873 1.4250002e-12   -1486647.8            0     13511190 
       0.101      101    4143.0751   0.38909189 5.5411046e-13 -5.682742e-13     57.10648     57.10648   -97.930669   -97.930669 1.3752709e-12   -1486647.8            0     13511190 
       0.102      102    4143.0751    0.3878716 5.7920618e-13 -3.4663614e-13     57.10648     57.10648   -97.931399   -97.931399 1.4397837e-12   -1486647.8            0     13511190 
       0.103      103    4143.0751   0.38661001 3.4114606e-13 -3.244797e-13     57.10648     57.10648   -97.932147   -97.932147 1.009287e-12   -1486647.8            0     13511190 
       0.104      104    4143.0751   0.38538772 -1.955333e-13 -6.5357545e-13     57.10648     57.10648   -97.932871   -97.932871 1.1840268e-12   -1486647.8            0     13511190 
       0.105      105    4143.0751   0.38420858 -4.8722022e-13 -7.4223044e-13     57.10648     57.10648   -97.933575   -97.933575 1.0081513e-12   -1486647.8            0     13511190 
       0.106      106    4143.0751    0.3829614 -3.4130948e-13 -8.5709478e-13     57.10648     57.10648   -97.934323   -97.934323 5.7333772e-13   -1486647.8            0     13511190 
       0.107      107    4143.0751   0.38173296 -5.4693997e-13 -1.426132e-12     57.10648     57.10648   -97.935057   -97.935057 7.9791613e-13   -1486647.8            0     13511190 
       0.108      108    4143.0751   0.38059137 -3.5551684e-13 -1.7321033e-12     57.10648     57.10648   -97.935733   -97.935733 6.930349e-13   -1486647.8            0     13511190 
       0.109      109    4143.0751    0.3794328 -1.3705291e-13 -1.0281271e-12     57.10648     57.10648   -97.936419   -97.936419 4.8622702e-13   -1486647.8            0     13511190 
        0.11      110    4143.0751   0.37821385 -6.6472172e-13 -1.2263739e-12     57.10648     57.10648   -97.937148   -97.937148 8.414075e-13   -1486647.8            0     13511190 
       0.111      111    4143.0751   0.37707422 -5.1887894e-13 -1.3198425e-12     57.10648     57.10648   -97.937832   -97.937832 1.0072579e-12   -1486647.8            0     13511190 
       0.112      112    4143.0751   0.37591399 -1.4965433e-13 -1.1039696e-12     57.10648     57.10648   -97.938523   -97.938523 8.4771362e-13   -1486647.8            0     13511190 
       0.113      113    4143.0751    0.3747634 -5.3923441e-13 -1.0611128e-12     57.10648     57.10648   -97.939205   -97.939205 1.023917e-12   -1486647.8            0     13511190 
       0.114      114    4143.0751   0.37368631 -1.141614e-12 -8.6358019e-13     57.10648     57.10648   -97.939844   -97.939844 9.1860205e-13   -1486647.8            0     13511190 
       0.115      115    4143.0751   0.37253115 -9.1029506e-13 -7.2558016e-13     57.10648     57.10648   -97.940536   -97.940536 8.6551772e-13   -1486647.8            0     13511190 
       0.116      116    4143.0751   0.37139698 -4.8643291e-13 -8.0407142e-13     57.10648     57.10648   -97.941215   -97.941215 7.6323662e-13   -1486647.8            0     13511190 
       0.117      117    4143.0751   0.37032345 -5.041176e-13 -5.6783704e-13     57.10648     57.10648   -97.941854   -97.941854 5.5259352e-13   -1486647.8            0     13511190 
       0.118      118    4143.0751   0.36922377 -2.0723805e-13 -2.2177761e-13     57.10648     57.10648   -97.942505   -97.942505 4.8717754e-13   -1486647.8            0     13511190 
       0.119      119    4143.0751   0.36812115 2.1409919e-13 -3.4166072e-13     57.10648     57.10648   -97.943161   -97.943161 6.9301462e-13   -1486647.8            0     13511190 
        0.12      120    4143.0751   0.36703772 1.8229954e-13 -1.9343581e-13     57.10648     57.10648    -97.94381    -97.94381 7.0690731e-13   -1486647.8            0     13511190 
       0.121      121    4143.0751    0.3659361 3.7379318e-13 4.7713167e-15     57.10648     57.10648   -97.944469   -97.944469 7.7494388e-13   -1486647.8            0     13511190 
       0.122      122    4143.0751    0.3648455 4.3223425e-13 1.503726e-13     57.10648     57.10648   -97.945117   -97.945117 7.8711102e-13   -1486647.8            0     13511190 
       0.123      123    4143.0751   0.36383036 5.0027868e-13 2.4039327e-13     57.10648     57.10648   -97.945719   -97.945719 8.2547041e-13   -1486647.8            0     13511190 
       0.124      124    4143.0751   0.36275231 5.0908918e-13 5.2484763e-13     57.10648     57.10648   -97.946361   -97.946361 7.7782349e-13   -1486647.8            0     13511190 
       0.125      125    4143.0751   0.36166436 3.2858524e-13 9.5832353e-13     57.10648     57.10648   -97.947013   -97.947013 9.1528283e-13   -1486647.8            0     13511190 
       0.126      126    4143.0751     0.360648 5.7824211e-13 6.3269762e-13     57.10648     57.10648    -97.94762    -97.94762 6.6106571e-13   -1486647.8            0     13511190 
       0.127      127    4143.0751   0.35959449 5.0505861e-13 7.4559888e-13     57.10648     57.10648   -97.948245   -97.948245 4.8077221e-13   -1486647.8            0     13511190 
       0.128      128    4143.0751   0.35856894 2.918765e-13 7.5776492e-13     57.10648     57.10648   -97.948854   -97.948854 3.280171e-13   -1486647.8            0     13511190 
       0.129      129    4143.0751   0.35754321 1.3308927e-13 2.4145128e-13     57.10648     57.10648   -97.949466   -97.949466 3.1726819e-13   -1486647.8            0     13511190 
        0.13      130    4143.0751    0.3564822 9.3608636e-14 -4.703814e-14     57.10648     57.10648   -97.950102   -97.950102 2.5515178e-13   -1486647.8            0     13511190 
       0.131      131    4143.0751   0.35545891 -1.2347623e-13 -1.0894435e-13     57.10648     57.10648   -97.950712   -97.950712 3.8301852e-13   -1486647.8            0     13511190 
       0.132      132    4143.0751   0.35446441 -3.9894019e-13 -2.8853348e-13     57.10648     57.10648   -97.951302   -97.951302 3.1706686e-13   -1486647.8            0     13511190 
       0.133      133    4143.0751   0.35344588 -4.4972665e-13 -3.8609355e-13     57.10648     57.10648   -97.951906   -97.951906 2.604933e-13   -1486647.8            0     13511190 
       0.134      134    4143.0751   0.35242008 -5.3097959e-13 -6.1549447e-13     57.10648     57.10648    -97.95252    -97.95252  4.40207e-13   -1486647.8            0     13511190 
       0.135      135    4143.0751   0.35142791 -3.6887883e-13 -6.6995013e-13     57.10648     57.10648   -97.953114   -97.953114 4.1303585e-13   -1486647.8            0     13511190 
       0.136      136    4143.0751   0.35040635 -7.3264143e-13 -5.1505744e-13     57.10648     57.10648   -97.953722   -97.953722 4.8581313e-13   -1486647.8            0     13511190 
       0.137      137    4143.0751   0.34942656 -5.8428906e-13 -4.6991068e-13     57.10648     57.10648   -97.954303   -97.954303 7.9013131e-13   -1486647.8            0     13511190 
       0.138      138    4143.0751   0.34846185 -2.6842464e-14 -2.1587998e-13     57.10648     57.10648   -97.954877   -97.954877 4.5908245e-13   -1486647.8            0     13511190 
       0.139      139    4143.0751   0.34743023 -2.0374168e-13 -6.497236e-14     57.10648     57.10648   -97.955494   -97.955494 2.3180949e-13   -1486647.8            0     13511190 
        0.14      140    4143.0751   0.34645107 -6.0649246e-13 -3.5867585e-13     57.10648     57.10648   -97.956079   -97.956079 4.1358135e-13   -1486647.8            0     13511190 
       0.141      141    4143.0751   0.34547767 -3.3050315e-13 -6.9179891e-13     57.10648     57.10648   -97.956659   -97.956659 4.8644285e-13   -1486647.8            0     13511190 
       0.142      142    4143.0751   0.34448464 1.3350902e-13 -2.5591627e-13     57.10648     57.10648   -97.957247   -97.957247 3.4173616e-13   -1486647.8            0     13511190 
       0.143      143    4143.0751   0.34352166 -2.5066044e-13 1.4172273e-13     57.10648     57.10648   -97.957821   -97.957821 3.7754423e-13   -1486647.8            0     13511190 
       0.144      144    4143.0751   0.34254498 -5.4451626e-13 -3.8817316e-14     57.10648     57.10648   -97.958405   -97.958405 1.2008452e-13   -1486647.8            0     13511190 
       0.145      145    4143.0751   0.34155103 -1.8020473e-13 -3.4396666e-13     57.10648     57.10648   -97.958999   -97.958999 1.4129014e-13   -1486647.8            0     13511190 
       0.146      146    4143.0751   0.34059406 -5.1187062e-13 -1.5378789e-13     57.10648     57.10648   -97.959568   -97.959568 1.9098953e-13   -1486647.8            0     13511190 
       0.147      147    4143.0751   0.33965637 -2.9889876e-13 -2.7711744e-14     57.10648     57.10648   -97.960124   -97.960124 3.1232911e-14   -1486647.8            0     13511190 
       0.148      148    4143.0751   0.33867102 3.8988866e-13 8.6450064e-14     57.10648     57.10648   -97.960712   -97.960712 -1.1499977e-13   -1486647.8            0     13511190 
       0.149      149    4143.0751    0.3377137 5.0461175e-13 1.3556929e-13     57.10648     57.10648   -97.961285   -97.961285 -1.4023713e-13   -1486647.8            0     13511190 
        0.15      150    4143.0751   0.33676181 3.6238887e-14 -5.447057e-14     57.10648     57.10648   -97.961853   -97.961853 -8.3083948e-14   -1486647.8            0     13511190 
       0.151      151    4143.0751   0.33578521 6.7611031e-14 5.6531219e-14     57.10648     57.10648   -97.962433   -97.962433 -7.5026834e-14   -1486647.8            0     13511190 
       0.152      152    4143.0751   0.33486057 4.1159959e-15 -1.8645917e-13     57.10648     57.10648   -97.962982   -97.962982 -5.6781368e-14   -1486647.8            0     13511190 
       0.153      153    4143.0751   0.33390006 -8.5999611e-14 -1.5111791e-14     57.10648     57.10648   -97.963555   -97.963555 9.4584427e-14   -1486647.8            0     13511190 
       0.154      154    4143.0751    0.3329232 -9.0502223e-13 4.1289898e-13     57.10648     57.10648    -97.96414    -97.96414 -1.3094073e-14   -1486647.8            0     13511190 
       0.155      155    4143.0751   0.33199754 -1.1902284e-12 1.4369398e-13     57.10648     57.10648   -97.964692   -97.964692 2.2672648e-13   -1486647.8            0     13511190 
       0.156      156    4143.0751   0.33105916 -7.0217922e-13 -8.1778513e-14     57.10648     57.10648   -97.965248   -97.965248  2.39373e-13   -1486647.8            0     13511190 
       0.157      157    4143.0751   0.33010793 -5.9747432e-13 3.6903633e-13     57.10648     57.10648   -97.965814   -97.965814 2.5786208e-13   -1486647.8            0     13511190 
       0.158      158    4143.0751   0.32917032 -9.3004766e-13 -6.177575e-14     57.10648     57.10648   -97.966374   -97.966374 3.8442157e-13   -1486647.8            0     13511190 
       0.159      159    4143.0751   0.32822956 -9.747473e-13 -4.4335789e-13     57.10648     57.10648   -97.966937   -97.966937 2.866128e-13   -1486647.8            0     13511190 
        0.16      160    4143.0751   0.32727818 -1.1746553e-12 -3.7915148e-13     57.10648     57.10648   -97.967503   -97.967503 1.4443438e-13   -1486647.8            0     13511190 
       0.161      161    4143.0751   0.32636959 -1.3018833e-12 -9.6478199e-14     57.10648     57.10648   -97.968042   -97.968042 2.5321136e-13   -1486647.8            0     13511190 
       0.162      162    4143.0751   0.32543866 -8.9163645e-13 -4.3709171e-13     57.10648     57.10648   -97.968596   -97.968596 1.470683e-14   -1486647.8            0     13511190 
       0.163      163    4143.0751   0.32447867 -8.1760146e-13 -3.9172273e-13     57.10648     57.10648    -97.96917    -97.96917 8.5529518e-14   -1486647.8            0     13511190 
       0.164      164    4143.0751   0.32356602 -1.0187759e-12 -8.4805266e-14     57.10648     57.10648   -97.969716   -97.969716 6.9711281e-14   -1486647.8            0     13511190 
       0.165      165    4143.0751   0.32262898 -6.790662e-13 1.6942108e-14     57.10648     57.10648   -97.970273   -97.970273 1.3913544e-13   -1486647.8            0     13511190 
       0.166      166    4143.0751   0.32170407 -4.997239e-13 -4.351896e-13     57.10648     57.10648   -97.970822   -97.970822 6.1911155e-14   -1486647.8            0     13511190 
       0.167      167    4143.0751   0.32079353 -4.9592626e-13 -6.3577793e-13     57.10648     57.10648   -97.971365   -97.971365 1.4877263e-13   -1486647.8            0     13511190 
       0.168      168    4143.0751   0.31984262 -2.9896131e-13 -1.7466277e-13     57.10648     57.10648   -97.971933   -97.971933 1.2302034e-13   -1486647.8            0     13511190 
       0.169      169    4143.0751   0.31891338 -5.0229462e-13 1.7921204e-13     57.10648     57.10648   -97.972488   -97.972488 1.8120006e-13   -1486647.8            0     13511190 
        0.17      170    4143.0751    0.3180042 -2.1258238e-13 1.5887237e-13     57.10648     57.10648   -97.973028   -97.973028 -4.2162575e-14   -1486647.8            0     13511190 
       0.171      171    4143.0751    0.3170793 -1.2631979e-13 3.5181258e-16     57.10648     57.10648   -97.973578   -97.973578 7.7057377e-14   -1486647.8            0     13511190 
       0.172      172    4143.0751   0.31614763 -3.5313746e-13 2.220369e-13     57.10648     57.10648   -97.974133   -97.974133 1.5962425e-13   -1486647.8            0     13511190 
       0.173      173    4143.0751   0.31523425 -2.9890962e-13 -6.0623658e-14     57.10648     57.10648    -97.97468    -97.97468 5.7215348e-14   -1486647.8            0     13511190 
       0.174      174    4143.0751   0.31430119 -3.7963228e-13 3.3075719e-14     57.10648     57.10648   -97.975236   -97.975236 1.4893216e-13   -1486647.8            0     13511190 
       0.175      175    4143.0751   0.31338091 -7.941826e-13 3.5951237e-13     57.10648     57.10648   -97.975783   -97.975783 2.1327228e-13   -1486647.8            0     13511190 
       0.176      176    4143.0751   0.31248655 -9.2949816e-13 1.8719985e-13     57.10648     57.10648   -97.976314   -97.976314 2.5843204e-13   -1486647.8            0     13511190 
       0.177      177    4143.0751   0.31154631 -8.5112979e-13 1.0293356e-13     57.10648     57.10648   -97.976876   -97.976876 3.2385784e-13   -1486647.8            0     13511190 
       0.178      178    4143.0751   0.31062955 -7.5076869e-13 5.2457475e-13     57.10648     57.10648   -97.977424   -97.977424 2.8026741e-13   -1486647.8            0     13511190 
       0.179      179    4143.0751   0.30972293 -7.7101897e-13 5.951442e-13     57.10648     57.10648   -97.977964   -97.977964 3.769846e-13   -1486647.8            0     13511190 
        0.18      180    4143.0751   0.30879713 -8.1674902e-13 4.1576889e-13     57.10648     57.10648   -97.978514   -97.978514 3.3998215e-13   -1486647.8            0     13511190 
       0.181      181    4143.0751   0.30789967 -7.9975844e-13 1.910098e-13     57.10648     57.10648   -97.979048   -97.979048 2.3950618e-13   -1486647.8            0     13511190 
       0.182      182    4143.0751   0.30697954 -4.9986086e-13 1.8433896e-14     57.10648     57.10648   -97.979597   -97.979597 1.7326737e-13   -1486647.8            0     13511190 
       0.183      183    4143.0751   0.30604641 -4.4089822e-13 -1.7628544e-13     57.10648     57.10648   -97.980155   -97.980155 1.8831135e-13   -1486647.8            0     13511190 
       0.184      184    4143.0751    0.3051399 -9.3322971e-13 2.6232415e-14     57.10648     57.10648   -97.980695   -97.980695 2.635724e-13   -1486647.8            0     13511190 
       0.185      185    4143.0751   0.30423713 -6.1698627e-13 1.3417592e-13     57.10648     57.10648   -97.981231   -97.981231 1.9272571e-13   -1486647.8            0     13511190 
       0.186      186    4143.0751   0.30331298 -6.9910209e-13 9.3251818e-14     57.10648     57.10648   -97.981781   -97.981781 2.3808142e-13   -1486647.8            0     13511190 
       0.187      187    4143.0751   0.30240057 -9.5026593e-13 -8.5607499e-14     57.10648     57.10648   -97.982326   -97.982326 3.4367774e-13   -1486647.8            0     13511190 
       0.188      188    4143.0751    0.3014909 -1.2822638e-12 -1.1450706e-13     57.10648     57.10648    -97.98287    -97.98287 2.7844319e-13   -1486647.8            0     13511190 
       0.189      189    4143.0751   0.30056479 -1.1144056e-12 3.2993418e-14     57.10648     57.10648    -97.98342    -97.98342 2.9952039e-13   -1486647.8            0     13511190 
        0.19      190    4143.0751   0.29967608 -6.7752962e-13 -1.7631558e-13     57.10648     57.10648   -97.983948   -97.983948 1.2581733e-13   -1486647.8            0     13511190 
       0.191      191    4143.0751   0.29876164 -9.9094383e-13 -2.196155e-13     57.10648     57.10648   -97.984493   -97.984493 2.393271e-13   -1486647.8            0     13511190 
       0.192      192    4143.0751    0.2978317 -9.6927384e-13 -5.5741203e-13     57.10648     57.10648   -97.985049   -97.985049 2.9775733e-13   -1486647.8            0     13511190 
       0.193      193    4143.0751   0.29693809 -7.5890284e-13 -6.6856434e-13     57.10648     57.10648   -97.985582   -97.985582 1.0375749e-13   -1486647.8            0     13511190 
       0.194      194    4143.0751   0.29601737 -4.5836264e-13 -5.4204292e-13     57.10648     57.10648    -97.98613    -97.98613 1.7359282e-13   -1486647.8            0     13511190 
       0.195      195    4143.0751   0.29510438 -4.7256248e-13 -1.234504e-13     57.10648     57.10648   -97.986672   -97.986672  3.32184e-14   -1486647.8            0     13511190 
       0.196      196    4143.0751   0.29420143 -5.5352655e-13 8.0041701e-14     57.10648     57.10648   -97.987211   -97.987211 1.7095188e-13   -1486647.8            0     13511190 
       0.197      197    4143.0751   0.29327711 -3.7716477e-13 -2.0424131e-13     57.10648     57.10648   -97.987763   -97.987763 1.7386044e-13   -1486647.8            0     13511190 
       0.198      198    4143.0751   0.29235986 -2.2101005e-13 1.9811467e-14     57.10648     57.10648    -97.98831    -97.98831 2.5492606e-13   -1486647.8            0     13511190 
       0.199      199    4143.0751   0.29145934 -2.6304193e-13 3.7630947e-13     57.10648     57.10648   -97.988845   -97.988845 6.0055446e-14   -1486647.8            0     13511190 
         0.2      200    4143.0751   0.29054407 -3.5115438e-13 -4.7744126e-15     57.10648     57.10648    -97.98939    -97.98939 1.3518534e-13   -1486647.8            0     13511190 
       0.201      201    4143.0751    0.2896191 -7.2499999e-13 -1.2139452e-13     57.10648     57.10648   -97.989942   -97.989942 7.9772406e-15   -1486647.8            0     13511190 
       0.202      202    4143.0751   0.28871845 -4.40046e-13 -9.6694549e-14     57.10648     57.10648    -97.99048    -97.99048 1.1322213e-13   -1486647.8            0     13511190 
       0.203      203    4143.0751   0.28779426 -5.1631962e-13 6.571955e-14     57.10648     57.10648    -97.99103    -97.99103 1.7411297e-13   -1486647.8            0     13511190 
       0.204      204    4143.0751   0.28688621 -5.6407349e-13 4.203376e-13     57.10648     57.10648    -97.99157    -97.99157 4.6629708e-14   -1486647.8            0     13511190 
       0.205      205    4143.0751   0.28599316 -6.0630109e-13 2.8876641e-13     57.10648     57.10648   -97.992101   -97.992101 2.3750091e-13   -1486647.8            0     13511190 
       0.206      206    4143.0751   0.28505889 -6.9295087e-13 1.2515555e-13     57.10648     57.10648   -97.992659   -97.992659 2.2933439e-13   -1486647.8            0     13511190 
       0.207      207    4143.0751   0.28415059 -8.1543635e-13 -2.7356023e-13     57.10648     57.10648   -97.993202   -97.993202 2.8149695e-13   -1486647.8            0     13511190 
       0.208      208    4143.0751   0.28324517 -6.2251983e-13 -4.4106167e-13     57.10648     57.10648   -97.993741   -97.993741 1.4177718e-13   -1486647.8            0     13511190 
       0.209      209    4143.0751   0.28232576 -5.7942684e-13 -6.0721747e-13     57.10648     57.10648   -97.994287   -97.994287 1.0143532e-13   -1486647.8            0     13511190 
        0.21      210    4143.0751   0.28142195 -3.8361748e-13 5.936696e-14     57.10648     57.10648   -97.994825   -97.994825 2.3534122e-13   -1486647.8            0     13511190 
       0.211      211    4143.0751   0.28050464 -1.5976814e-13 -3.0676723e-13     57.10648     57.10648   -97.995373   -97.995373 2.6462258e-13   -1486647.8            0     13511190 
       0.212      212    4143.0751   0.27957685 -9.7795675e-14 -3.7252191e-14     57.10648     57.10648   -97.995927   -97.995927 2.5728654e-13   -1486647.8            0     13511190 
       0.213      213    4143.0751   0.27866903 1.7956254e-13 4.3230659e-13     57.10648     57.10648   -97.996467   -97.996467 2.8371884e-13   -1486647.8            0     13511190 
       0.214      214    4143.0751   0.27776753 4.9183708e-13 4.5046835e-13     57.10648     57.10648   -97.997003   -97.997003 2.1222108e-13   -1486647.8            0     13511190 
       0.215      215    4143.0751   0.27683704 2.9732213e-13 2.8389094e-14     57.10648     57.10648   -97.997558   -97.997558 2.958359e-13   -1486647.8            0     13511190 
       0.216      216    4143.0751   0.27592455 4.5520476e-13 1.1347607e-13     57.10648     57.10648   -97.998103   -97.998103 1.7398291e-13   -1486647.8            0     13511190 
       0.217      217    4143.0751   0.27501254 6.4824784e-13 -8.8322442e-14     57.10648     57.10648   -97.998647   -97.998647 2.3394746e-15   -1486647.8            0     13511190 
       0.218      218    4143.0751   0.27408559 2.8560515e-13 -1.4283492e-13     57.10648     57.10648   -97.999198   -97.999198 1.2811864e-13   -1486647.8            0     13511190 
       0.219      219    4143.0751   0.27319039 2.641744e-13 -2.375591e-13     57.10648     57.10648    -97.99973    -97.99973 -6.7831375e-14   -1486647.8            0     13511190 
        0.22      220    4143.0751    0.2722667 3.5399393e-13 -2.3383516e-14     57.10648     57.10648   -98.000281   -98.000281 -1.0739552e-13   -1486647.8            0     13511190 
       0.221      221    4143.0751     0.271336 4.789623e-13 -1.3606048e-13     57.10648     57.10648   -98.000837   -98.000837 -1.4809719e-13   -1486647.8            0     13511190 
       0.222      222    4143.0751   0.27042984 4.9965385e-13 6.6413234e-14     57.10648     57.10648   -98.001377   -98.001377 -9.1347218e-14   -1486647.8            0     13511190 
       0.223      223    4143.0751   0.26950905 5.8605925e-14 4.1767296e-13     57.10648     57.10648   -98.001925   -98.001925 -5.8656867e-14   -1486647.8            0     13511190 
       0.224      224    4143.0751    0.2685931 -1.6677404e-13 3.5090932e-13     57.10648     57.10648    -98.00247    -98.00247 1.3111602e-13   -1486647.8            0     13511190 
       0.225      225    4143.0751   0.26767685 1.5761591e-13 3.1706674e-14     57.10648     57.10648   -98.003017   -98.003017 1.2659979e-13   -1486647.8            0     13511190 
       0.226      226    4143.0751   0.26674808 3.2747351e-13 -1.1818719e-14     57.10648     57.10648   -98.003571   -98.003571 -5.9886322e-15   -1486647.8            0     13511190 
       0.227      227    4143.0751   0.26582365 3.280849e-13 3.0745645e-13     57.10648     57.10648   -98.004122   -98.004122 2.2598154e-13   -1486647.8            0     13511190 
       0.228      228    4143.0751   0.26491883 5.3611101e-13 3.0549265e-13     57.10648     57.10648    -98.00466    -98.00466 1.0433696e-13   -1486647.8            0     13511190 
       0.229      229    4143.0751   0.26399665 2.0751844e-13 2.0259917e-13     57.10648     57.10648   -98.005209   -98.005209 1.520499e-13   -1486647.8            0     13511190 
        0.23      230    4143.0751   0.26306786 1.2780894e-14 1.696462e-13     57.10648     57.10648   -98.005763   -98.005763 2.1795592e-13   -1486647.8            0     13511190 
       0.231      231    4143.0751   0.26215459 2.7764659e-14 3.1609978e-13     57.10648     57.10648   -98.006308   -98.006308 1.2359483e-13   -1486647.8            0     13511190 
       0.232      232    4143.0751    0.2612193 -2.2261233e-13 1.7533712e-13     57.10648     57.10648   -98.006865   -98.006865 1.5121216e-13   -1486647.8            0     13511190 
       0.233      233    4143.0751   0.26030825 -3.5485484e-13 3.0982902e-13     57.10648     57.10648   -98.007407   -98.007407 2.1266586e-13   -1486647.8            0     13511190 
       0.234      234    4143.0751   0.25939479 -4.6267515e-14 1.7020069e-13     57.10648     57.10648   -98.007951   -98.007951 1.9135853e-13   -1486647.8            0     13511190 
       0.235      235    4143.0751   0.25845092 1.552641e-13 1.7297894e-13     57.10648     57.10648   -98.008515   -98.008515 1.4649337e-13   -1486647.8            0     13511190 
       0.236      236    4143.0751   0.25753431 -7.9568917e-14 2.6796901e-13     57.10648     57.10648   -98.009062   -98.009062 -6.7725108e-14   -1486647.8            0     13511190 
       0.237      237    4143.0751   0.25661308 5.1575009e-14 3.3426428e-13     57.10648     57.10648    -98.00961    -98.00961 1.6757501e-13   -1486647.8            0     13511190 
       0.238      238    4143.0751    0.2556842 9.114429e-14 2.0589333e-13     57.10648     57.10648   -98.010162   -98.010162 6.0857008e-14   -1486647.8            0     13511190 
       0.239      239    4143.0751   0.25476361 -4.1617365e-14 1.9861024e-13     57.10648     57.10648   -98.010711   -98.010711 -3.3054729e-14   -1486647.8            0     13511190 
        0.24      240    4143.0751   0.25383468 -1.2118309e-13 8.0305176e-14     57.10648     57.10648   -98.011266   -98.011266 -1.5583909e-13   -1486647.8            0     13511190 
       0.241      241    4143.0751    0.2528984  3.63932e-13 1.3637296e-13     57.10648     57.10648   -98.011824   -98.011824 4.0591035e-14   -1486647.8            0     13511190 
       0.242      242    4143.0751   0.25198034 7.8480521e-13 4.1317639e-13     57.10648     57.10648    -98.01237    -98.01237 2.6642166e-14   -1486647.8            0     13511190 
       0.243      243    4143.0751   0.25106088 8.4343301e-13 5.3056557e-14     57.10648     57.10648   -98.012917   -98.012917 6.8499496e-14   -1486647.8            0     13511190 
       0.244      244    4143.0751   0.25011632 5.7110152e-13 -1.7145215e-13     57.10648     57.10648    -98.01348    -98.01348 -6.5080499e-14   -1486647.8            0     13511190 
       0.245      245    4143.0751   0.24919362 4.995579e-13 -4.348876e-13     57.10648     57.10648   -98.014031   -98.014031 1.2150202e-13   -1486647.8            0     13511190 
       0.246      246    4143.0751   0.24826088 5.4246461e-13 -1.5156088e-13     57.10648     57.10648   -98.014587   -98.014587 1.6470622e-13   -1486647.8            0     13511190 
       0.247      247    4143.0751   0.24732592 3.1182346e-13 2.0718998e-13     57.10648     57.10648   -98.015143   -98.015143 1.5938764e-13   -1486647.8            0     13511190 
       0.248      248    4143.0751   0.24641247 3.3402614e-13 -2.8321184e-13     57.10648     57.10648   -98.015687   -98.015687 2.0843534e-13   -1486647.8            0     13511190 
       0.249      249    4143.0751   0.24546823 5.6274697e-13 -6.0430696e-13     57.10648     57.10648    -98.01625    -98.01625 7.3533825e-14   -1486647.8            0     13511190 
        0.25      250    4143.0751   0.24453323 2.725499e-13 -2.7596302e-13     57.10648     57.10648   -98.016808   -98.016808 1.9964875e-13   -1486647.8            0     13511190 
       0.251      251    4143.0751   0.24361039 1.7522371e-13 3.4661162e-13     57.10648     57.10648   -98.017358   -98.017358 1.5536701e-13   -1486647.8            0     13511190 
       0.252      252    4143.0751   0.24267286 1.9159542e-13 2.3197778e-13     57.10648     57.10648   -98.017915   -98.017915 1.9074058e-13   -1486647.8            0     13511190 
       0.253      253    4143.0751   0.24174169 2.4457203e-13 -1.2017045e-13     57.10648     57.10648    -98.01847    -98.01847 1.8707727e-13   -1486647.8            0     13511190 
       0.254      254    4143.0751   0.24081105 3.4782403e-13 -2.4611576e-13     57.10648     57.10648   -98.019025   -98.019025 2.0763983e-13   -1486647.8            0     13511190 
       0.255      255    4143.0751   0.23986955 3.0863236e-13 7.1968279e-14     57.10648     57.10648   -98.019587   -98.019587 1.0994807e-13   -1486647.8            0     13511190 
       0.256      256    4143.0751   0.23893671 1.0643852e-14 2.0495888e-13     57.10648     57.10648   -98.020143   -98.020143 1.5030159e-13   -1486647.8            0     13511190 
       0.257      257    4143.0751   0.23801795 9.8644023e-14 1.5618284e-13     57.10648     57.10648   -98.020689   -98.020689 5.3996179e-14   -1486647.8            0     13511190 
       0.258      258    4143.0751   0.23707101 6.6794048e-13 3.5468759e-13     57.10648     57.10648   -98.021253   -98.021253 -1.7975697e-14   -1486647.8            0     13511190 
       0.259      259    4143.0751   0.23612982 7.1597938e-13 4.3577082e-13     57.10648     57.10648   -98.021815   -98.021815 1.6783782e-13   -1486647.8            0     13511190 
        0.26      260    4143.0751   0.23519945 6.9544089e-13 7.4115792e-14     57.10648     57.10648    -98.02237    -98.02237 -3.3987273e-14   -1486647.8            0     13511190 
       0.261      261    4143.0751   0.23425004 8.8310298e-13 -3.3225698e-13     57.10648     57.10648   -98.022935   -98.022935 -4.4130742e-14   -1486647.8            0     13511190 
       0.262      262    4143.0751   0.23332544 9.4554544e-13 -2.8577459e-13     57.10648     57.10648   -98.023485   -98.023485 1.108679e-13   -1486647.8            0     13511190 
       0.263      263    4143.0751   0.23238612 8.0509105e-13 3.0038395e-14     57.10648     57.10648   -98.024045   -98.024045 1.3699764e-13   -1486647.8            0     13511190 
       0.264      264    4143.0751   0.23143309 1.1541678e-12 1.6616577e-13     57.10648     57.10648   -98.024614   -98.024614 1.3987465e-13   -1486647.8            0     13511190 
       0.265      265    4143.0751   0.23050306 1.3969107e-12 2.7481311e-13     57.10648     57.10648   -98.025168   -98.025168 1.3216346e-13   -1486647.8            0     13511190 
       0.266      266    4143.0751   0.22956165 1.0712883e-12 -1.5224798e-13     57.10648     57.10648   -98.025728   -98.025728 2.9136577e-13   -1486647.8            0     13511190 
       0.267      267    4143.0751   0.22861741 9.6733539e-13 -5.0655724e-14     57.10648     57.10648    -98.02629    -98.02629 1.8274107e-13   -1486647.8            0     13511190 
       0.268      268    4143.0751   0.22767804 7.1589677e-13 -2.0916944e-13     57.10648     57.10648    -98.02685    -98.02685 2.8697039e-13   -1486647.8            0     13511190 
       0.269      269    4143.0751   0.22673174 4.932708e-13 -1.3220315e-13     57.10648     57.10648   -98.027415   -98.027415 1.3768587e-13   -1486647.8            0     13511190 
        0.27      270    4143.0751   0.22578258 4.5024424e-14 2.8784273e-14     57.10648     57.10648   -98.027981   -98.027981 2.4782862e-13   -1486647.8            0     13511190 
       0.271      271    4143.0751   0.22485223 5.2521403e-13 1.9351493e-13     57.10648     57.10648   -98.028534   -98.028534 1.5088157e-13   -1486647.8            0     13511190 
       0.272      272    4143.0751   0.22390926 9.6670792e-13 1.5274224e-13     57.10648     57.10648   -98.029096   -98.029096 2.038773e-14   -1486647.8            0     13511190 
       0.273      273    4143.0751   0.22295384 3.9255489e-13 -3.1415163e-13     57.10648     57.10648   -98.029666   -98.029666 7.7850313e-14   -1486647.8            0     13511190 
       0.274      274    4143.0751   0.22202114 4.684715e-14 3.4478255e-13     57.10648     57.10648   -98.030222   -98.030222 7.0893475e-14   -1486647.8            0     13511190 
       0.275      275    4143.0751   0.22106732 3.5834565e-13 6.0886813e-13     57.10648     57.10648    -98.03079    -98.03079 5.9724708e-14   -1486647.8            0     13511190 
       0.276      276    4143.0751   0.22012262 4.3180376e-13 -6.0116223e-14     57.10648     57.10648   -98.031352   -98.031352 1.3855352e-13   -1486647.8            0     13511190 
       0.277      277    4143.0751   0.21918726 4.4045954e-13 -4.8326261e-13     57.10648     57.10648   -98.031909   -98.031909 9.5369723e-14   -1486647.8            0     13511190 
       0.278      278    4143.0751   0.21822449 7.9645781e-13 -2.1590228e-13     57.10648     57.10648   -98.032484   -98.032484 2.2739503e-13   -1486647.8            0     13511190 
       0.279      279    4143.0751   0.21727829 5.5611248e-13 3.3591697e-14     57.10648     57.10648   -98.033049   -98.033049 2.154105e-13   -1486647.8            0     13511190 
        0.28      280    4143.0751   0.21633417 -2.0485242e-13 3.252716e-13     57.10648     57.10648   -98.033611   -98.033611 1.6754461e-13   -1486647.8            0     13511190 
       0.281      281    4143.0751   0.21538247 -4.7019682e-13 5.9254198e-13     57.10648     57.10648   -98.034177   -98.034177 1.4458015e-13   -1486647.8            0     13511190 
       0.282      282    4143.0751   0.21443766 -2.0804546e-13 8.5741068e-14     57.10648     57.10648    -98.03474    -98.03474 2.9906488e-13   -1486647.8            0     13511190 
       0.283      283    4143.0751   0.21348765 1.2772686e-13 1.9391872e-13     57.10648     57.10648   -98.035307   -98.035307 9.7054637e-14   -1486647.8            0     13511190 
       0.284      284    4143.0751   0.21252692 3.0843551e-13  1.82951e-13     57.10648     57.10648    -98.03588    -98.03588 1.8413174e-13   -1486647.8            0     13511190 
       0.285      285    4143.0751   0.21157999 3.1169991e-13 -2.711313e-13     57.10648     57.10648   -98.036443   -98.036443 1.2028489e-13   -1486647.8            0     13511190 
       0.286      286    4143.0751    0.2106391 1.7122238e-13 -5.1826511e-13     57.10648     57.10648   -98.037003   -98.037003 3.3017914e-13   -1486647.8            0     13511190 
       0.287      287    4143.0751   0.20967253 -5.0739748e-13 1.9991303e-13     57.10648     57.10648   -98.037579   -98.037579 -1.9707226e-14   -1486647.8            0     13511190 
       0.288      288    4143.0751   0.20872288 -5.2946102e-13 4.7643174e-13     57.10648     57.10648   -98.038146   -98.038146 -6.0202024e-14   -1486647.8            0     13511190 
       0.289      289    4143.0751   0.20777103 -4.3993626e-13 -2.6414504e-14     57.10648     57.10648   -98.038713   -98.038713 1.6723566e-13   -1486647.8            0     13511190 
        0.29      290    4143.0751   0.20681121 -4.4906023e-13 -4.1419913e-14     57.10648     57.10648   -98.039284   -98.039284 1.5629345e-13   -1486647.8            0     13511190 
       0.291      291    4143.0751   0.20587437 -9.2036631e-13 2.9342741e-13     57.10648     57.10648   -98.039842   -98.039842 2.0583599e-14   -1486647.8            0     13511190 
       0.292      292    4143.0751   0.20491105 -8.9794655e-13 8.0337729e-14     57.10648     57.10648   -98.040417   -98.040417 1.7792374e-13   -1486647.8            0     13511190 
       0.293      293    4143.0751   0.20394591 -1.8657473e-13 -3.876986e-14     57.10648     57.10648   -98.040993   -98.040993 9.3485145e-14   -1486647.8            0     13511190 
       0.294      294    4143.0751   0.20299856 -4.0851784e-14 1.0204523e-13     57.10648     57.10648   -98.041557   -98.041557 -4.8927642e-14   -1486647.8            0     13511190 
       0.295      295    4143.0751   0.20204252 -2.5738202e-13 3.1275727e-13     57.10648     57.10648   -98.042126   -98.042126 1.350815e-13   -1486647.8            0     13511190 
       0.296      296    4143.0751   0.20108722 -1.5132165e-13 6.3256409e-14     57.10648     57.10648   -98.042694   -98.042694 2.6650072e-13   -1486647.8            0     13511190 
       0.297      297    4143.0751   0.20013114 2.0211937e-13 1.073322e-13     57.10648     57.10648   -98.043265   -98.043265 3.0760796e-13   -1486647.8            0     13511190 
       0.298      298    4143.0751   0.19916553 2.3340565e-13 -1.8718896e-14     57.10648     57.10648   -98.043841   -98.043841 2.3274339e-13   -1486647.8            0     13511190 
       0.299      299    4143.0751   0.19820227 -2.004999e-13 -3.908419e-13     57.10648     57.10648   -98.044415   -98.044415 3.7725814e-13   -1486647.8            0     13511190 
         0.3      300    4143.0751   0.19725669 -1.4335202e-13 -6.7846605e-13     57.10648     57.10648   -98.044977   -98.044977 4.1789856e-13   -1486647.8            0     13511190 
       0.301      301    4143.0751   0.19629275 -9.994957e-14 -5.0167183e-13     57.10648     57.10648   -98.045551   -98.045551 1.5751823e-13   -1486647.8            0     13511190 
       0.302      302    4143.0751   0.19532827 -3.0404961e-13 1.1637673e-13     57.10648     57.10648   -98.046127   -98.046127 2.1387914e-13   -1486647.8            0     13511190 
       0.303      303    4143.0751   0.19437642 -3.4844686e-13 -3.9575897e-14     57.10648     57.10648   -98.046695   -98.046695 2.862012e-13   -1486647.8            0     13511190 
       0.304      304    4143.0751   0.19340656 -3.8900129e-13 -3.5350791e-13     57.10648     57.10648   -98.047272   -98.047272 3.443946e-13   -1486647.8            0     13511190 
       0.305      305    4143.0751   0.19245702 -4.6329836e-13 -6.1318904e-13     57.10648     57.10648   -98.047837   -98.047837 9.1518812e-14   -1486647.8            0     13511190 
       0.306      306    4143.0751   0.19149883 -3.0332163e-13 -4.7137548e-13     57.10648     57.10648   -98.048408   -98.048408 1.4756619e-13   -1486647.8            0     13511190 
       0.307      307    4143.0751   0.19052115 -4.2667374e-14 3.9081836e-14     57.10648     57.10648   -98.048992   -98.048992 6.0649759e-14   -1486647.8            0     13511190 
       0.308      308    4143.0751   0.18956353 2.5682649e-13 6.1165513e-13     57.10648     57.10648   -98.049563   -98.049563 1.2490763e-13   -1486647.8            0     13511190 
       0.309      309    4143.0751   0.18860125 -1.9067498e-13 1.0510536e-12     57.10648     57.10648   -98.050135   -98.050135 8.0301287e-14   -1486647.8            0     13511190 
        0.31      310    4143.0751   0.18763535 -1.3823173e-13 1.216385e-12     57.10648     57.10648    -98.05071    -98.05071 1.6961425e-13   -1486647.8            0     13511190 
       0.311      311    4143.0751   0.18667379 5.0469742e-13 5.6178363e-13     57.10648     57.10648   -98.051283   -98.051283 9.0314295e-14   -1486647.8            0     13511190 
       0.312      312    4143.0751   0.18570699 1.9778385e-14 2.1011773e-13     57.10648     57.10648    -98.05186    -98.05186 7.1142764e-14   -1486647.8            0     13511190 
       0.313      313    4143.0751   0.18473388 -3.7808414e-13 6.5783139e-13     57.10648     57.10648    -98.05244    -98.05244 -2.8351051e-14   -1486647.8            0     13511190 
       0.314      314    4143.0751   0.18377734 -4.5961682e-13 5.4759139e-13     57.10648     57.10648   -98.053009   -98.053009 1.6712131e-13   -1486647.8            0     13511190 
       0.315      315    4143.0751   0.18281861 -3.8723644e-13 4.5998621e-13     57.10648     57.10648    -98.05358    -98.05358 6.6097765e-14   -1486647.8            0     13511190 
       0.316      316    4143.0751   0.18184298 -4.3406854e-13 3.7191831e-13     57.10648     57.10648   -98.054162   -98.054162 2.4907159e-13   -1486647.8            0     13511190 
       0.317      317    4143.0751   0.18088182 -3.3033941e-13 2.613478e-13     57.10648     57.10648   -98.054736   -98.054736 1.6423436e-13   -1486647.8            0     13511190 
       0.318      318    4143.0751   0.17990762 4.3314085e-13 9.4471655e-14     57.10648     57.10648   -98.055316   -98.055316 2.3451838e-13   -1486647.8            0     13511190 
       0.319      319    4143.0751   0.17894059 8.222587e-13 3.1607065e-13     57.10648     57.10648   -98.055891   -98.055891 4.2229494e-14   -1486647.8            0     13511190 
        0.32      320    4143.0751   0.17798424 5.5919643e-13 3.733554e-13     57.10648     57.10648   -98.056461   -98.056461 1.8029981e-13   -1486647.8            0     13511190 
       0.321      321    4143.0751   0.17700295 1.2653501e-13 1.6567523e-14     57.10648     57.10648   -98.057046   -98.057046 2.1262212e-13   -1486647.8            0     13511190 
       0.322      322    4143.0751   0.17603547 3.0457026e-13 -2.1801003e-13     57.10648     57.10648   -98.057624   -98.057624 1.4827437e-13   -1486647.8            0     13511190 
       0.323      323    4143.0751   0.17507212 6.0115689e-13 1.5399089e-13     57.10648     57.10648   -98.058197   -98.058197 1.3296571e-13   -1486647.8            0     13511190 
       0.324      324    4143.0751   0.17410014 1.3938678e-13 6.9391426e-14     57.10648     57.10648   -98.058775   -98.058775 1.7143927e-13   -1486647.8            0     13511190 
       0.325      325    4143.0751    0.1731329 2.8786184e-13 -1.0681702e-13     57.10648     57.10648   -98.059352   -98.059352 1.9924499e-13   -1486647.8            0     13511190 
       0.326      326    4143.0751   0.17216166 2.6362148e-13 5.6825279e-14     57.10648     57.10648   -98.059931   -98.059931 1.2061654e-13   -1486647.8            0     13511190 
       0.327      327    4143.0751   0.17118417 -1.8255334e-13 1.5537167e-13     57.10648     57.10648   -98.060514   -98.060514 1.804353e-13   -1486647.8            0     13511190 
       0.328      328    4143.0751   0.17021578 -1.2219194e-13 -3.7480062e-14     57.10648     57.10648   -98.061091   -98.061091 7.8764101e-14   -1486647.8            0     13511190 
       0.329      329    4143.0751    0.1692528 5.8095683e-13 -1.9317037e-13     57.10648     57.10648   -98.061664   -98.061664 4.6340243e-14   -1486647.8            0     13511190 
        0.33      330    4143.0751   0.16827043 4.518253e-13 -7.7234916e-14     57.10648     57.10648   -98.062249   -98.062249 9.653456e-14   -1486647.8            0     13511190 
       0.331      331    4143.0751   0.16730051 -4.3676048e-13 -4.9222727e-14     57.10648     57.10648   -98.062828   -98.062828 1.2692906e-13   -1486647.8            0     13511190 
       0.332      332    4143.0751   0.16632969 -8.4458993e-13 2.1996244e-14     57.10648     57.10648   -98.063407   -98.063407 2.4640835e-14   -1486647.8            0     13511190 
       0.333      333    4143.0751   0.16534894 -3.8909565e-13 6.1514832e-14     57.10648     57.10648    -98.06399    -98.06399 2.0346276e-13   -1486647.8            0     13511190 
       0.334      334    4143.0751    0.1643873 -4.8123199e-13 3.0886088e-13     57.10648     57.10648   -98.064563   -98.064563 2.361838e-13   -1486647.8            0     13511190 
       0.335      335    4143.0751   0.16340554 -6.5132242e-13 2.6212398e-13     57.10648     57.10648   -98.065148   -98.065148 -3.2236681e-14   -1486647.8            0     13511190 
       0.336      336    4143.0751   0.16242445 -3.6256842e-13 7.0107854e-14     57.10648     57.10648   -98.065734   -98.065734 1.4631015e-13   -1486647.8            0     13511190 
       0.337      337    4143.0751   0.16145939 -9.6199631e-14 -2.0101519e-13     57.10648     57.10648   -98.066309   -98.066309 1.9509647e-13   -1486647.8            0     13511190 
       0.338      338    4143.0751   0.16048297 -2.5055625e-13 -1.9734344e-13     57.10648     57.10648    -98.06689    -98.06689 1.5180838e-13   -1486647.8            0     13511190 
       0.339      339    4143.0751    0.1595097 -2.0359941e-13 -2.2904819e-13     57.10648     57.10648   -98.067469   -98.067469 1.9571574e-13   -1486647.8            0     13511190 
        0.34      340    4143.0751   0.15853494 2.8189321e-13 -6.5948957e-14     57.10648     57.10648   -98.068051   -98.068051 -6.9430391e-15   -1486647.8            0     13511190 
       0.341      341    4143.0751   0.15755138 3.3732371e-13 -8.5720576e-14     57.10648     57.10648   -98.068638   -98.068638 7.5989485e-14   -1486647.8            0     13511190 
       0.342      342    4143.0751   0.15657192 1.3309037e-13 -2.4880479e-13     57.10648     57.10648   -98.069221   -98.069221 1.5794745e-13   -1486647.8            0     13511190 
       0.343      343    4143.0751   0.15560606 -1.8248501e-13 -5.0682526e-13     57.10648     57.10648   -98.069796   -98.069796 1.4771184e-13   -1486647.8            0     13511190 
       0.344      344    4143.0751   0.15462543 -4.8504679e-14 -7.7748091e-13     57.10648     57.10648    -98.07038    -98.07038 -1.1088497e-13   -1486647.8            0     13511190 
       0.345      345    4143.0751   0.15364257 2.2821054e-13 -3.0736734e-13     57.10648     57.10648   -98.070966   -98.070966 1.2810765e-13   -1486647.8            0     13511190 
       0.346      346    4143.0751   0.15267184 8.5181961e-13 -8.454202e-14     57.10648     57.10648   -98.071545   -98.071545 -4.8342198e-14   -1486647.8            0     13511190 
       0.347      347    4143.0751   0.15168796 1.0438082e-12 6.9688512e-14     57.10648     57.10648   -98.072131   -98.072131 -5.8250463e-14   -1486647.8            0     13511190 
       0.348      348    4143.0751   0.15072498 2.6187455e-13 -2.49982e-13     57.10648     57.10648   -98.072704   -98.072704 1.2787524e-13   -1486647.8            0     13511190 
       0.349      349    4143.0751   0.14976968 7.0953815e-14 -3.0002324e-13     57.10648     57.10648   -98.073273   -98.073273 1.062151e-13   -1486647.8            0     13511190 
        0.35      350    4143.0751   0.14883048 1.4813485e-13 -3.5552643e-13     57.10648     57.10648   -98.073834   -98.073834 9.0747957e-14   -1486647.8            0     13511190 
       0.351      351    4143.0751   0.14796673 4.3657125e-13 3.379147e-14     57.10648     57.10648   -98.074349   -98.074349 -7.8211953e-14   -1486647.8            0     13511190 
       0.352      352    4143.0751   0.14719406 7.5815321e-13 -2.5768789e-14     57.10648     57.10648   -98.074808   -98.074808 2.8094035e-14   -1486647.8            0     13511190 
       0.353      353    4143.0751   0.14656563 1.0361107e-12 -3.2749068e-14     57.10648     57.10648   -98.075182   -98.075182 1.3479445e-13   -1486647.8            0     13511190 
       0.354      354    4143.0751   0.14610738 7.366645e-13 -3.7818118e-13     57.10648     57.10648   -98.075456   -98.075456 -1.7330318e-15   -1486647.8            0     13511190 
       0.355      355    4143.0751   0.14579927 8.814396e-13 -3.2283504e-13     57.10648     57.10648    -98.07564    -98.07564 2.3443466e-15   -1486647.8            0     13511190 
       0.356      356    4143.0751   0.14560545 7.5605146e-13 -2.8079831e-13     57.10648     57.10648   -98.075755   -98.075755 5.5887777e-14   -1486647.8            0     13511190 
       0.357      357    4143.0751   0.14547425 7.5300788e-13 -3.6703382e-13     57.10648     57.10648   -98.075833   -98.075833 1.7634654e-13   -1486647.8            0     13511190 
Loop time of 31.4132 on 64 procs for 357 steps with 360800 atoms

90.6% CPU use with 64 MPI tasks x 1 OpenMP threads

Minimization stats:
  Stopping criterion = energy tolerance
  Energy initial, next-to-last, final = 
     -1486645.77951318  -1486647.82549146  -1486647.82549146
  Force two-norm initial, final = 7.1080974 5.2071594e-05
  Force max component initial, final = 0.19826945 3.9845985e-07
  Final line search alpha, max atom move = 1.0000000 3.9845985e-07
  Iterations, force evaluations = 357 714

MPI task timing breakdown:
Section |  min time  |  avg time  |  max time  |%varavg| %total
---------------------------------------------------------------
Pair    | 2.4279     | 6.9242     | 14.978     | 201.7 | 22.04
Neigh   | 0          | 0          | 0          |   0.0 |  0.00
Comm    | 0.028755   | 2.605      | 7.8514     | 220.8 |  8.29
Output  | 2.4026     | 2.4491     | 2.4982     |   1.5 |  7.80
Modify  | 0          | 0          | 0          |   0.0 |  0.00
Other   |            | 19.43      |            |       | 61.87

Nlocal:        5637.50 ave       18400 max           0 min
Histogram: 44 0 0 0 0 0 0 0 1 19
Nghost:        5643.81 ave       18428 max           0 min
Histogram: 43 1 0 0 0 0 0 1 1 18
Neighs:         0.00000 ave           0 max           0 min
Histogram: 64 0 0 0 0 0 0 0 0 0
FullNghs:      944975.0 ave  3.0912e+06 max           0 min
Histogram: 44 0 0 0 0 0 0 0 1 19

Total # of neighbors = 60478400
Ave neighs/atom = 167.62306
Neighbor list builds = 0
Dangerous builds = 0
variable oshikko equal pxx
variable p0 equal ${oshikko}
variable p0 equal 0.145474248315885
variable unko equal lx
variable lx0 equal ${unko}
variable lx0 equal 4143.075124

variable current_time equal time

variable boxlen equal lx
variable boxwidth equal ly
variable pressure equal pxx
variable epsilon equal ln(lx/${lx0})
variable epsilon equal ln(lx/4143.075124)
variable sigma equal abs(pxx-${p0})
variable sigma equal abs(pxx-0.145474248315885)
fix extra all print 1 "${boxlen} ${boxwidth} ${pressure} ${sigma} ${epsilon} ${current_time} $t" file sscurve.txt

#fix strain all deform 1000 x trate 0.0001
#fix strain1 all deform 1 x scale 1.0001
#run 1
#minimize 1.0e-30 1.0e-30 100000 100000
#unfix strain1
#fix strain2 all deform 1 x scale 1.0001
#run 1
#minimize 1.0e-30 1.0e-30 100000 100000
#unfix strain2
#fix strain1 all deform 1 x scale 1.0001
#run 1
#minimize 1.0e-30 1.0e-30 100000 100000
#quit

minimize 1.0e-30 1.0e-30 100000 100000
WARNING: Using 'neigh_modify every 1 delay 0 check yes' setting during minimization (../min.cpp:188)
Per MPI rank memory allocation (min/avg/max) = 2.376 | 4.647 | 9.765 Mbytes
Time Step Lx Pxx Pxy Pxz Ly Lz Pyy Pzz Pyz TotEng Temp Volume 
       0.357      357    4143.0751   0.14547425 7.3174757e-13 -3.3486274e-13     57.10648     57.10648   -98.075833   -98.075833 1.8293335e-13   -1486647.8            0     13511190 
       0.358      358    4143.0751   0.14547398 6.323554e-13 -4.6382397e-13     57.10648     57.10648   -98.075833   -98.075833 2.9098841e-14   -1486647.8            0     13511190 
       0.359      359    4143.0751     0.145473 8.9619376e-13 -9.8138257e-14     57.10648     57.10648   -98.075834   -98.075834 -1.856513e-15   -1486647.8            0     13511190 
        0.36      360    4143.0751   0.14547078 7.4860207e-13 -1.4565007e-13     57.10648     57.10648   -98.075835   -98.075835 3.6288285e-14   -1486647.8            0     13511190 
Loop time of 0.305054 on 64 procs for 3 steps with 360800 atoms

90.1% CPU use with 64 MPI tasks x 1 OpenMP threads

Minimization stats:
  Stopping criterion = energy tolerance
  Energy initial, next-to-last, final = 
     -1486647.82549146  -1486647.82549146  -1486647.82549146
  Force two-norm initial, final = 5.2071594e-05 7.3654206e-05
  Force max component initial, final = 3.9845985e-07 5.8523295e-07
  Final line search alpha, max atom move = 1.0000000 5.8523295e-07
  Iterations, force evaluations = 3 6

MPI task timing breakdown:
Section |  min time  |  avg time  |  max time  |%varavg| %total
---------------------------------------------------------------
Pair    | 0.022415   | 0.067331   | 0.1499     |  20.0 | 22.07
Neigh   | 0          | 0          | 0          |   0.0 |  0.00
Comm    | 0.00026378 | 0.026103   | 0.082745   |  22.1 |  8.56
Output  | 0.012875   | 0.013523   | 0.014158   |   0.3 |  4.43
Modify  | 0          | 0          | 0          |   0.0 |  0.00
Other   |            | 0.1981     |            |       | 64.94

Nlocal:        5637.50 ave       18400 max           0 min
Histogram: 44 0 0 0 0 0 0 0 1 19
Nghost:        5643.81 ave       18428 max           0 min
Histogram: 43 1 0 0 0 0 0 1 1 18
Neighs:         0.00000 ave           0 max           0 min
Histogram: 64 0 0 0 0 0 0 0 0 0
FullNghs:      944975.0 ave  3.0912e+06 max           0 min
Histogram: 44 0 0 0 0 0 0 0 1 19

Total # of neighbors = 60478400
Ave neighs/atom = 167.62306
Neighbor list builds = 0
Dangerous builds = 0
label		deformationLoop
#variable	i loop 25
variable	j loop 5
variable 	expRate equal 1+0.0001*$j
variable 	expRate equal 1+0.0001*1
fix strain 	all deform 1 x scale ${expRate}
fix strain 	all deform 1 x scale 1.0001
run 		1
4143.075124 57.10648 0.145470776315594 3.47200029077177e-06 0 0 0
Per MPI rank memory allocation (min/avg/max) = 1.949 | 3.578 | 7.251 Mbytes
Time Step Lx Pxx Pxy Pxz Ly Lz Pyy Pzz Pyz TotEng Temp Volume 
           0      360    4143.0751   0.14547078 7.5115583e-13 -1.1602164e-13     57.10648     57.10648   -98.075835   -98.075835 8.4521564e-14   -1486647.8            0     13511190 
4143.075124 57.10648 0.145470776213351 3.47210253406893e-06 0 0.001 1.00388183327694e-14
       0.001      361    4143.4894   0.14545623 9.3792844e-13 -4.8105059e-14     57.10648     57.10648   -98.066029   -98.066029 3.5522564e-14   -1486647.8 1.0038818e-14     13512541 
Loop time of 0.0679579 on 64 procs for 1 steps with 360800 atoms

Performance: 1.271 ns/day, 18.877 hours/ns, 14.715 timesteps/s
86.8% CPU use with 64 MPI tasks x 1 OpenMP threads

MPI task timing breakdown:
Section |  min time  |  avg time  |  max time  |%varavg| %total
---------------------------------------------------------------
Pair    | 0.0044176  | 0.010238   | 0.021996   |   7.2 | 15.07
Neigh   | 0          | 0          | 0          |   0.0 |  0.00
Comm    | 2.6339e-05 | 0.0074186  | 0.024546   |  12.0 | 10.92
Output  | 0.0070929  | 0.0086402  | 0.0092781  |   0.8 | 12.71
Modify  | 0.01012    | 0.033161   | 0.045411   |   8.2 | 48.80
Other   |            | 0.0085     |            |       | 12.51

Nlocal:        5637.50 ave       18400 max           0 min
Histogram: 44 0 0 0 0 0 0 0 1 19
Nghost:        5643.81 ave       18428 max           0 min
Histogram: 43 1 0 0 0 0 0 1 1 18
Neighs:         0.00000 ave           0 max           0 min
Histogram: 64 0 0 0 0 0 0 0 0 0
FullNghs:      944975.0 ave  3.0912e+06 max           0 min
Histogram: 44 0 0 0 0 0 0 0 1 19

Total # of neighbors = 60478400
Ave neighs/atom = 167.62306
Neighbor list builds = 0
Dangerous builds = 0
print 		"${boxlen} ${boxwidth} ${pressure} ${sigma} ${epsilon} ${current_time} $t" append sstest.txt
4143.4894315124 57.10648 0.145456230590292 1.80177255931502e-05 9.99950003332973e-05 0.001 1.00388183327694e-14
print 		"run 1 end"
run 1 end
minimize 	1.0e-30 1.0e-30 100000 100000
WARNING: Using 'neigh_modify every 1 delay 0 check yes' setting during minimization (../min.cpp:188)
Per MPI rank memory allocation (min/avg/max) = 2.376 | 4.647 | 9.765 Mbytes
Time Step Lx Pxx Pxy Pxz Ly Lz Pyy Pzz Pyz TotEng Temp Volume 
       0.001      361    4143.4894   -75.387784 8.0738803e-13 -1.7816121e-13     57.10648     57.10648   -143.08843   -143.08843 1.2467593e-13   -1486647.8 1.0038818e-14     13512541 
       0.002      362    4143.4894   -75.132775 -4.547924e-12 1.997834e-12     57.10648     57.10648   -142.90262   -142.90262 4.2413299e-13   -1486647.8 1.0038818e-14     13512541 
       0.003      363    4143.4894   -74.874254 -6.6660802e-11 2.8979791e-11     57.10648     57.10648   -142.75675   -142.75675 5.280659e-12   -1486647.8 1.0038818e-14     13512541 
       0.004      364    4143.4894   -74.618962 -8.5971208e-10 3.7263211e-10     57.10648     57.10648   -142.60074   -142.60074 6.3402551e-11   -1486647.8 1.0038818e-14     13512541 
       0.005      365    4143.4894   -74.368427 -9.8681354e-09 4.3201068e-09     57.10648     57.10648   -142.45357   -142.45357 7.1565537e-10   -1486647.8 1.0038818e-14     13512541 
       0.006      366    4143.4894   -74.136089 -8.0413894e-08 3.5517924e-08     57.10648     57.10648   -142.31466   -142.31466 5.844299e-09   -1486647.8 1.0038818e-14     13512541 
       0.007      367    4143.4894   -73.949812 -1.5270359e-07 6.8110027e-08     57.10648     57.10648   -142.20297   -142.20297 1.1306571e-08   -1486647.8 1.0038818e-14     13512541 
       0.008      368    4143.4894   -73.741196 -4.2042024e-08 1.9081016e-08     57.10648     57.10648   -142.07936   -142.07936 3.4731694e-09   -1486647.8 1.0038818e-14     13512541 
       0.009      369    4143.4894   -73.503733 -1.1625871e-08 4.459591e-09     57.10648     57.10648    -141.9383    -141.9383 1.7006856e-09   -1486647.8 1.0038818e-14     13512541 
        0.01      370    4143.4894   -73.270192 -1.5257035e-08 8.6249266e-10     57.10648     57.10648   -141.79798   -141.79798 3.7128801e-09   -1486647.8 1.0038818e-14     13512541 
       0.011      371    4143.4894   -73.061912 -3.4569837e-08 -8.522429e-10     57.10648     57.10648   -141.67494   -141.67494 7.9953933e-09   -1486647.8 1.0038818e-14     13512541 
       0.012      372    4143.4894   -72.862065 -2.9588737e-08 1.8840239e-09     57.10648     57.10648   -141.55613   -141.55613 5.9444167e-09   -1486647.8 1.0038818e-14     13512541 
       0.013      373    4143.4894   -72.642755 -2.0429273e-08 1.2429002e-09     57.10648     57.10648   -141.42424   -141.42425 5.006878e-09   -1486647.8 1.0038818e-14     13512541 
       0.014      374    4143.4894   -72.432345 -1.9543053e-08 -3.4432359e-09     57.10648     57.10648   -141.29975   -141.29975 6.2281833e-09   -1486647.8 1.0038818e-14     13512541 
       0.015      375    4143.4894   -72.224332 -1.3031962e-08 -3.7175994e-09     57.10648     57.10648    -141.1763    -141.1763 3.4517882e-09   -1486647.8 1.0038818e-14     13512541 
       0.016      376    4143.4894   -71.998713 -1.1458515e-08 -2.7283214e-09     57.10648     57.10648    -141.0406    -141.0406 3.2351024e-09   -1486647.8 1.0038818e-14     13512541 
       0.017      377    4143.4894   -71.784074 -1.791953e-08 -4.4622262e-09     57.10648     57.10648   -140.91363   -140.91363 8.1002928e-09   -1486647.8 1.0038818e-14     13512541 
       0.018      378    4143.4894   -71.585201 -1.6558196e-08 -2.7350868e-09     57.10648     57.10648   -140.79554   -140.79554 7.434016e-09   -1486647.8 1.0038818e-14     13512541 
       0.019      379    4143.4894   -71.366493 -1.4863041e-08 -1.9708507e-09     57.10648     57.10648   -140.66412   -140.66412 4.5580129e-09   -1486647.8 1.0038818e-14     13512541 
        0.02      380    4143.4894   -71.152507 -2.1925266e-08 -4.6454188e-09     57.10648     57.10648   -140.53726   -140.53726 5.3034396e-09   -1486647.8 1.0038818e-14     13512541 
[...]
       0.614     3098    4149.2933   0.22263842 1.2895034e-06 2.4959026e-07     57.10648     57.10648   -97.882743   -97.882743 2.9383158e-12   -1486647.8 3.3722696e-14     13531468 
       0.615     3099    4149.2933   0.21980747 1.2461324e-06 2.4113198e-07     57.10648     57.10648    -97.88443    -97.88443 3.2323459e-12   -1486647.8 3.3722696e-14     13531468 
       0.616     3100    4149.2933   0.21665748 1.1953432e-06 2.4143272e-07     57.10648     57.10648   -97.886307   -97.886307 2.8532133e-12   -1486647.8 3.3722696e-14     13531468 
       0.617     3101    4149.2933   0.21388565 1.150203e-06 2.3106248e-07     57.10648     57.10648   -97.887959   -97.887959 3.536895e-12   -1486647.8 3.3722696e-14     13531468 
       0.618     3102    4149.2933   0.21084863 1.0987629e-06 2.0900298e-07     57.10648     57.10648   -97.889769   -97.889769 3.6360574e-12   -1486647.8 3.3722696e-14     13531468 
       0.619     3103    4149.2933   0.20796822 1.0445262e-06 1.9376978e-07     57.10648     57.10648   -97.891485   -97.891485 4.8108329e-12   -1486647.8 3.3722696e-14     13531468 
        0.62     3104    4149.2933   0.20499214 9.8517147e-07 1.8663953e-07     57.10648     57.10648   -97.893257   -97.893257 3.7384236e-12   -1486647.8 3.3722696e-14     13531468 
       0.621     3105    4149.2933   0.20204444 9.2898791e-07 1.7791118e-07     57.10648     57.10648   -97.895014   -97.895014 5.1097612e-12   -1486647.8 3.3722696e-14     13531468 
       0.622     3106    4149.2933   0.19923975 8.8082018e-07 1.6119221e-07     57.10648     57.10648   -97.896687   -97.896687 3.7749551e-12   -1486647.8 3.3722696e-14     13531468 
       0.623     3107    4149.2933   0.19626208 8.330549e-07 1.3804834e-07     57.10648     57.10648    -97.89846    -97.89846  4.26355e-12   -1486647.8 3.3722696e-14     13531468 
       0.624     3108    4149.2933   0.19353671 7.877386e-07 1.2243228e-07     57.10648     57.10648   -97.900083   -97.900083 3.5752131e-12   -1486647.8 3.3722696e-14     13531468 
       0.625     3109    4149.2933   0.19043842 7.3572373e-07 1.1309784e-07     57.10648     57.10648    -97.90193    -97.90193 3.2814609e-12   -1486647.8 3.3722696e-14     13531468 
       0.626     3110    4149.2933   0.18769294 6.9370519e-07 1.0139292e-07     57.10648     57.10648   -97.903566   -97.903566 3.0650541e-12   -1486647.8 3.3722696e-14     13531468 
       0.627     3111    4149.2933   0.18467853 6.4917819e-07 7.7924467e-08     57.10648     57.10648   -97.905361   -97.905361 2.3941216e-12   -1486647.8 3.3722696e-14     13531468 
       0.628     3112    4149.2933   0.18193204 6.0207992e-07 5.5133986e-08     57.10648     57.10648   -97.906999   -97.906999 2.4931883e-12   -1486647.8 3.3722696e-14     13531468 
       0.629     3113    4149.2933    0.1789767 5.445216e-07 4.2765653e-08     57.10648     57.10648    -97.90876    -97.90876 1.6858364e-12   -1486647.8 3.3722696e-14     13531468 
        0.63     3114    4149.2933   0.17611802 4.8944124e-07 4.0430051e-08     57.10648     57.10648   -97.910463   -97.910463 1.8481619e-12   -1486647.8 3.3722696e-14     13531468 
       0.631     3115    4149.2933   0.17316941 4.3663909e-07 2.9699917e-08     57.10648     57.10648    -97.91222    -97.91222 1.5382606e-12   -1486647.8 3.3722696e-14     13531468 
       0.632     3116    4149.2933   0.17019507  3.84158e-07 6.5957262e-09     57.10648     57.10648   -97.913992   -97.913992 1.3894388e-12   -1486647.8 3.3722696e-14     13531468 
       0.633     3117    4149.2933   0.16738315 3.3263763e-07 -7.2725225e-09     57.10648     57.10648   -97.915667   -97.915667 1.4049456e-12   -1486647.8 3.3722696e-14     13531468 
       0.634     3118    4149.2933   0.16437025 2.7959218e-07 -7.5933431e-09     57.10648     57.10648   -97.917463   -97.917463 1.3140391e-12   -1486647.8 3.3722696e-14     13531468 
       0.635     3119    4149.2933   0.16155924 2.3753594e-07 -1.4991928e-08     57.10648     57.10648   -97.919138   -97.919138 1.0636759e-12   -1486647.8 3.3722696e-14     13531468 
       0.636     3120    4149.2933   0.15847509 1.9651824e-07 -3.8277758e-08     57.10648     57.10648   -97.920975   -97.920975 1.1438155e-12   -1486647.8 3.3722696e-14     13531468 
       0.637     3121    4149.2933   0.15554463 1.5461696e-07 -5.7815357e-08     57.10648     57.10648   -97.922722   -97.922722 1.6724216e-12   -1486647.8 3.3722696e-14     13531468 
       0.638     3122    4149.2933   0.15253926 1.078789e-07 -6.5648603e-08     57.10648     57.10648   -97.924513   -97.924513 1.6533975e-12   -1486647.8 3.3722696e-14     13531468 
       0.639     3123    4149.2933   0.14958209 6.2373238e-08 -7.124269e-08     57.10648     57.10648   -97.926274   -97.926274 2.0579997e-12   -1486647.8 3.3722696e-14     13531468 
        0.64     3124    4149.2933   0.14663574 1.7765337e-08 -8.6219221e-08     57.10648     57.10648    -97.92803    -97.92803 1.9053855e-12   -1486647.8 3.3722696e-14     13531468 
       0.641     3125    4149.2933   0.14355104 -3.2591404e-08 -1.0849816e-07     57.10648     57.10648   -97.929869   -97.929869 1.9862036e-12   -1486647.8 3.3722696e-14     13531468 
       0.642     3126    4149.2933   0.14058438 -8.5451471e-08 -1.2439143e-07     57.10648     57.10648   -97.931635   -97.931635 2.2246793e-12   -1486647.8 3.3722696e-14     13531468 
       0.643     3127    4149.2933   0.13741533 -1.4197716e-07 -1.3211002e-07     57.10648     57.10648   -97.933523   -97.933523 2.0969306e-12   -1486647.8 3.3722696e-14     13531468 
       0.644     3128    4149.2933   0.13448998 -1.8910177e-07 -1.3907471e-07     57.10648     57.10648   -97.935268   -97.935268 2.0132974e-12   -1486647.8 3.3722696e-14     13531468 
       0.645     3129    4149.2933   0.13137078 -2.3442533e-07 -1.5350689e-07     57.10648     57.10648   -97.937126   -97.937126 1.3704324e-12   -1486647.8 3.3722696e-14     13531468 
       0.646     3130    4149.2933    0.1283483 -2.7672929e-07 -1.7096303e-07     57.10648     57.10648   -97.938926   -97.938926 1.5985337e-12   -1486647.8 3.3722696e-14     13531468 
       0.647     3131    4149.2933   0.12524462 -3.1940476e-07 -1.8238427e-07     57.10648     57.10648   -97.940776   -97.940776 9.3422608e-13   -1486647.8 3.3722696e-14     13531468 
       0.648     3132    4149.2933   0.12204694 -3.6084925e-07 -1.860584e-07     57.10648     57.10648   -97.942682   -97.942682 1.0609114e-12   -1486647.8 3.3722696e-14     13531468 
       0.649     3133    4149.2933   0.11903255 -3.9741746e-07 -1.9453059e-07     57.10648     57.10648   -97.944478   -97.944478 7.2996566e-13   -1486647.8 3.3722696e-14     13531468 
        0.65     3134    4149.2933    0.1158279 -4.3620012e-07 -2.1413164e-07     57.10648     57.10648   -97.946387   -97.946387 5.9977871e-13   -1486647.8 3.3722696e-14     13531468 
       0.651     3135    4149.2933   0.11285501 -4.7555529e-07 -2.2927044e-07     57.10648     57.10648   -97.948159   -97.948159 5.2164699e-13   -1486647.8 3.3722696e-14     13531468 
       0.652     3136    4149.2933     0.109615 -5.2174299e-07 -2.340104e-07     57.10648     57.10648   -97.950089   -97.950089 5.5319226e-13   -1486647.8 3.3722696e-14     13531468 
       0.653     3137    4149.2933   0.10656838 -5.638142e-07 -2.369381e-07     57.10648     57.10648   -97.951905   -97.951905 9.5119942e-13   -1486647.8 3.3722696e-14     13531468 
       0.654     3138    4149.2933   0.10332802 -6.0468162e-07 -2.4957667e-07     57.10648     57.10648   -97.953835   -97.953835 8.8988934e-13   -1486647.8 3.3722696e-14     13531468 
       0.655     3139    4149.2933   0.10023659 -6.4174511e-07 -2.6768965e-07     57.10648     57.10648   -97.955677   -97.955677 1.2750383e-12   -1486647.8 3.3722696e-14     13531468 
       0.656     3140    4149.2933  0.097170357 -6.7852877e-07 -2.7917347e-07     57.10648     57.10648   -97.957505   -97.957505 1.0454299e-12   -1486647.8 3.3722696e-14     13531468 
       0.657     3141    4149.2933  0.093976815 -7.138504e-07 -2.814883e-07     57.10648     57.10648   -97.959408   -97.959408 1.3765274e-12   -1486647.8 3.3722696e-14     13531468 
       0.658     3142    4149.2933  0.090966022 -7.4079342e-07 -2.868605e-07     57.10648     57.10648   -97.961201   -97.961201 1.4139727e-12   -1486647.8 3.3722696e-14     13531468 
       0.659     3143    4149.2933  0.087699393 -7.6523192e-07 -3.0132144e-07     57.10648     57.10648   -97.963147   -97.963147 1.8265321e-12   -1486647.8 3.3722696e-14     13531468 
        0.66     3144    4149.2933  0.084729678 -7.8954242e-07 -3.1230979e-07     57.10648     57.10648   -97.964918   -97.964918 2.1997902e-12   -1486647.8 3.3722696e-14     13531468 
       0.661     3145    4149.2933  0.081596306 -8.1794364e-07 -3.1483875e-07     57.10648     57.10648   -97.966785   -97.966785 2.1023431e-12   -1486647.8 3.3722696e-14     13531468 
       0.662     3146    4149.2933  0.078658825 -8.4268498e-07 -3.1531321e-07     57.10648     57.10648   -97.968534   -97.968534 2.5022304e-12   -1486647.8 3.3722696e-14     13531468 
       0.663     3147    4149.2933   0.07559446 -8.6621467e-07 -3.2278375e-07     57.10648     57.10648   -97.970361   -97.970361 1.9794352e-12   -1486647.8 3.3722696e-14     13531468 
       0.664     3148    4149.2933  0.072536278 -8.9134985e-07 -3.3547209e-07     57.10648     57.10648   -97.972184   -97.972184 2.4751564e-12   -1486647.8 3.3722696e-14     13531468 
       0.665     3149    4149.2933  0.069598028 -9.1751606e-07 -3.4288294e-07     57.10648     57.10648   -97.973934   -97.973934 1.998629e-12   -1486647.8 3.3722696e-14     13531468 
       0.666     3150    4149.2933  0.066563582 -9.4211852e-07 -3.4295803e-07     57.10648     57.10648   -97.975741   -97.975741 2.1666122e-12   -1486647.8 3.3722696e-14     13531468 
       0.667     3151    4149.2933  0.063784591 -9.5859639e-07 -3.4436292e-07     57.10648     57.10648   -97.977397   -97.977397 2.0028346e-12   -1486647.8 3.3722696e-14     13531468 
       0.668     3152    4149.2933  0.060830592 -9.7128189e-07 -3.5138182e-07     57.10648     57.10648   -97.979158   -97.979158 1.7073485e-12   -1486647.8 3.3722696e-14     13531468 
       0.669     3153    4149.2933   0.05804437 -9.8331801e-07 -3.5792378e-07     57.10648     57.10648   -97.980819   -97.980819 1.7746044e-12   -1486647.8 3.3722696e-14     13531468 
        0.67     3154    4149.2933  0.055180012 -9.9596258e-07 -3.5917637e-07     57.10648     57.10648   -97.982525   -97.982525 1.2021264e-12   -1486647.8 3.3722696e-14     13531468 
       0.671     3155    4149.2933  0.052407176 -1.0047753e-06 -3.5574642e-07     57.10648     57.10648   -97.984176   -97.984176 1.4289985e-12   -1486647.8 3.3722696e-14     13531468 
       0.672     3156    4149.2933  0.049779706 -1.010159e-06 -3.5387296e-07     57.10648     57.10648   -97.985743   -97.985743 1.0540508e-12   -1486647.8 3.3722696e-14     13531468 
       0.673     3157    4149.2933  0.047053905 -1.0176721e-06 -3.5712619e-07     57.10648     57.10648   -97.987367   -97.987367 1.246905e-12   -1486647.8 3.3722696e-14     13531468 
       0.674     3158    4149.2933  0.044544256 -1.0287619e-06 -3.6128746e-07     57.10648     57.10648   -97.988862   -97.988862 9.146631e-13   -1486647.8 3.3722696e-14     13531468 
       0.675     3159    4149.2933  0.041859641 -1.0406697e-06 -3.6138869e-07     57.10648     57.10648   -97.990461   -97.990461 8.6791049e-13   -1486647.8 3.3722696e-14     13531468 
       0.676     3160    4149.2933  0.039434398 -1.0475444e-06 -3.5891614e-07     57.10648     57.10648   -97.991907   -97.991907 8.7431053e-13   -1486647.8 3.3722696e-14     13531468 
       0.677     3161    4149.2933  0.036925514 -1.053618e-06 -3.6073557e-07     57.10648     57.10648   -97.993402   -97.993402 5.1740004e-13   -1486647.8 3.3722696e-14     13531468 
       0.678     3162    4149.2933  0.034567886 -1.0609388e-06 -3.6774241e-07     57.10648     57.10648   -97.994806   -97.994806 9.7719568e-13   -1486647.8 3.3722696e-14     13531468 
       0.679     3163    4149.2933  0.032283794 -1.0650073e-06 -3.7009131e-07     57.10648     57.10648   -97.996168   -97.996168 7.3031643e-13   -1486647.8 3.3722696e-14     13531468 
        0.68     3164    4149.2933  0.029947075 -1.0624313e-06 -3.6319047e-07     57.10648     57.10648    -97.99756    -97.99756 7.6988366e-13   -1486647.8 3.3722696e-14     13531468 
       0.681     3165    4149.2933  0.027803855 -1.0582275e-06 -3.5725362e-07     57.10648     57.10648   -97.998837   -97.998837 5.4532501e-13   -1486647.8 3.3722696e-14     13531468 
       0.682     3166    4149.2933    0.0255632 -1.0551223e-06 -3.571167e-07     57.10648     57.10648   -98.000173   -98.000173 9.0983628e-13   -1486647.8 3.3722696e-14     13531468 
       0.683     3167    4149.2933  0.023591215 -1.0520858e-06 -3.5651825e-07     57.10648     57.10648   -98.001348   -98.001348 8.1237646e-13   -1486647.8 3.3722696e-14     13531468 
       0.684     3168    4149.2933  0.021544229 -1.0487525e-06 -3.5065334e-07     57.10648     57.10648   -98.002566   -98.002566 9.1151808e-13   -1486647.8 3.3722696e-14     13531468 
       0.685     3169    4149.2933    0.0196438 -1.0479156e-06 -3.4415802e-07     57.10648     57.10648   -98.003699   -98.003699 1.2566746e-12   -1486647.8 3.3722696e-14     13531468 
       0.686     3170    4149.2933  0.017770846 -1.0481118e-06 -3.4217645e-07     57.10648     57.10648   -98.004815   -98.004815 1.1667184e-12   -1486647.8 3.3722696e-14     13531468 
       0.687     3171    4149.2933  0.015913602 -1.046554e-06 -3.4466444e-07     57.10648     57.10648   -98.005923   -98.005923 1.3253187e-12   -1486647.8 3.3722696e-14     13531468 
       0.688     3172    4149.2933  0.014235569 -1.0439574e-06 -3.458826e-07     57.10648     57.10648   -98.006922   -98.006922 1.2466906e-12   -1486647.8 3.3722696e-14     13531468 
       0.689     3173    4149.2933  0.012527457 -1.0409009e-06 -3.4290786e-07     57.10648     57.10648   -98.007939   -98.007939 1.1941709e-12   -1486647.8 3.3722696e-14     13531468 
        0.69     3174    4149.2933  0.011007901 -1.0358504e-06 -3.3853677e-07     57.10648     57.10648   -98.008844   -98.008844 1.0874744e-12   -1486647.8 3.3722696e-14     13531468 
       0.691     3175    4149.2933 0.0094182019 -1.0270639e-06 -3.3568695e-07     57.10648     57.10648   -98.009793   -98.009793 1.1622369e-12   -1486647.8 3.3722696e-14     13531468 
       0.692     3176    4149.2933 0.0079806159 -1.0183775e-06 -3.3454616e-07     57.10648     57.10648   -98.010649   -98.010649 1.0826524e-12   -1486647.8 3.3722696e-14     13531468 
       0.693     3177    4149.2933 0.0065734493 -1.0111601e-06 -3.3049614e-07     57.10648     57.10648   -98.011486   -98.011486 8.7244868e-13   -1486647.8 3.3722696e-14     13531468 
       0.694     3178    4149.2933 0.0052450444 -1.0042272e-06 -3.2201687e-07     57.10648     57.10648   -98.012278   -98.012278 8.5454339e-13   -1486647.8 3.3722696e-14     13531468 
       0.695     3179    4149.2933 0.0040322878 -9.9634989e-07 -3.153334e-07     57.10648     57.10648   -98.013002   -98.013002 4.8936093e-13   -1486647.8 3.3722696e-14     13531468 
       0.696     3180    4149.2933 0.0028048208 -9.8865927e-07 -3.1370633e-07     57.10648     57.10648   -98.013733   -98.013733 6.3322484e-13   -1486647.8 3.3722696e-14     13531468 
       0.697     3181    4149.2933 0.0017206281 -9.84405e-07 -3.1296243e-07     57.10648     57.10648   -98.014378   -98.014378 4.8449359e-13   -1486647.8 3.3722696e-14     13531468 
       0.698     3182    4149.2933 0.0006240341 -9.8091099e-07 -3.0850934e-07     57.10648     57.10648   -98.015032   -98.015032 3.6269447e-13   -1486647.8 3.3722696e-14     13531468 
       0.699     3183    4149.2933 -0.0003547669 -9.7544596e-07 -3.0302092e-07     57.10648     57.10648   -98.015616   -98.015616 1.7947963e-13   -1486647.8 3.3722696e-14     13531468 
         0.7     3184    4149.2933 -0.0012689743 -9.6875983e-07 -3.0096331e-07     57.10648     57.10648    -98.01616    -98.01616 1.8088616e-13   -1486647.8 3.3722696e-14     13531468 
       0.701     3185    4149.2933 -0.0021356745 -9.6278699e-07 -3.0126817e-07     57.10648     57.10648   -98.016677   -98.016677 2.4201187e-13   -1486647.8 3.3722696e-14     13531468 
       0.702     3186    4149.2933 -0.0029215925 -9.5711457e-07 -2.9843814e-07     57.10648     57.10648   -98.017145   -98.017145 1.8526714e-13   -1486647.8 3.3722696e-14     13531468 
       0.703     3187    4149.2933 -0.0036900171 -9.4947361e-07 -2.9184239e-07     57.10648     57.10648   -98.017603   -98.017603 6.5726489e-14   -1486647.8 3.3722696e-14     13531468 
       0.704     3188    4149.2933 -0.0043538819 -9.4128164e-07 -2.8699486e-07     57.10648     57.10648   -98.017999   -98.017999 8.0281367e-14   -1486647.8 3.3722696e-14     13531468 
       0.705     3189    4149.2933 -0.0049821018 -9.3385384e-07 -2.8446253e-07     57.10648     57.10648   -98.018374   -98.018374 1.320532e-13   -1486647.8 3.3722696e-14     13531468 
       0.706     3190    4149.2933 -0.0055272828 -9.2856442e-07 -2.8169835e-07     57.10648     57.10648   -98.018699   -98.018699 4.1693123e-14   -1486647.8 3.3722696e-14     13531468 
       0.707     3191    4149.2933 -0.0060166857 -9.2380202e-07 -2.7782376e-07     57.10648     57.10648    -98.01899    -98.01899 9.1207195e-14   -1486647.8 3.3722696e-14     13531468 
       0.708     3192    4149.2933 -0.006455155 -9.1866597e-07 -2.746318e-07     57.10648     57.10648   -98.019252   -98.019252 -2.3981864e-13   -1486647.8 3.3722696e-14     13531468 
       0.709     3193    4149.2933 -0.006834185 -9.1396334e-07 -2.7310076e-07     57.10648     57.10648   -98.019479   -98.019479 3.1530459e-14   -1486647.8 3.3722696e-14     13531468 
        0.71     3194    4149.2933 -0.0071903887 -9.0990472e-07 -2.7223206e-07     57.10648     57.10648   -98.019693   -98.019693 -9.3288875e-14   -1486647.8 3.3722696e-14     13531468 
       0.711     3195    4149.2933 -0.0074546218 -9.066347e-07 -2.7092549e-07     57.10648     57.10648   -98.019851   -98.019851 -6.6658701e-14   -1486647.8 3.3722696e-14     13531468 
Loop time of 62.2124 on 64 procs for 706 steps with 360800 atoms

90.8% CPU use with 64 MPI tasks x 1 OpenMP threads

Minimization stats:
  Stopping criterion = energy tolerance
  Energy initial, next-to-last, final = 
     -1486647.02902268  -1486647.82549174  -1486647.82549174
  Force two-norm initial, final = 0.14494740 4.6784062e-05
  Force max component initial, final = 0.0050010028 3.1964183e-07
  Final line search alpha, max atom move = 1.0000000 3.1964183e-07
  Iterations, force evaluations = 706 1412

MPI task timing breakdown:
Section |  min time  |  avg time  |  max time  |%varavg| %total
---------------------------------------------------------------
Pair    | 4.8053     | 13.689     | 30.259     | 285.3 | 22.00
Neigh   | 0          | 0          | 0          |   0.0 |  0.00
Comm    | 0.05598    | 5.164      | 16.207     | 311.0 |  8.30
Output  | 4.7102     | 4.811      | 4.917      |   2.2 |  7.73
Modify  | 0          | 0          | 0          |   0.0 |  0.00
Other   |            | 38.55      |            |       | 61.96

Nlocal:        5637.50 ave       18400 max           0 min
Histogram: 44 0 0 0 0 0 0 0 1 19
Nghost:        5624.28 ave       18428 max           0 min
Histogram: 43 1 0 0 0 0 0 2 0 18
Neighs:         0.00000 ave           0 max           0 min
Histogram: 64 0 0 0 0 0 0 0 0 0
FullNghs:      944975.0 ave  3.0912e+06 max           0 min
Histogram: 44 0 0 0 0 0 0 0 1 19

Total # of neighbors = 60478400
Ave neighs/atom = 167.62306
Neighbor list builds = 0
Dangerous builds = 0
print 		"${boxlen} ${boxwidth} ${pressure} ${sigma} ${epsilon} ${current_time} $t" append ssminimize.txt
4149.29325923216 57.10648 -0.00745462184208482 0.15292887015797 0.00149972507497613 0.711 3.3722695668833e-14
print 		"minimize end"
minimize end
#if "$i == 25" then quit
next j
jump SELF deformationLoop

Total wall time: 0:04:56
