LAMMPS (29 Sep 2021 - Update 1)
KOKKOS mode is enabled (../kokkos.cpp:97)
  will use up to 1 GPU(s) per node
  using 1 OpenMP thread(s) per MPI task
Reading data file ...
  orthogonal box = (0.0000000 0.0000000 0.0000000) to (4143.0751 57.106480 57.106480)
  64 by 1 by 1 MPI processor grid
  reading atoms ...
  360800 atoms
  read_data CPU = 4.970 seconds
800 atoms in group source
800 atoms in group detector
400 atoms in group edge
400 atoms in group edge_buf
120000 atoms in group buffer
WARNING: Using 'neigh_modify every 1 delay 0 check yes' setting during minimization (../min.cpp:188)
Neighbor list info ...
  update every 1 steps, delay 0 steps, check yes
  max neighbors/atom: 2000, page size: 100000
  master list distance cutoff = 7.6
  ghost atom cutoff = 7.6
  binsize = 7.6, bins = 546 8 8
  1 neighbor lists, perpetual/occasional/extra = 1 0 0
  (1) pair eam/alloy/kk, perpetual
      attributes: full, newton off, kokkos_device
      pair build: full/bin/kk/device
      stencil: full/bin/3d
      bin: kk/device
Setting up cg/kk style minimization ...
  Unit style    : metal
  Current step  : 0
WARNING: Fixes cannot yet send exchange data in Kokkos communication, switching to classic exchange/border communication (../comm_kokkos.cpp:581)
Per MPI rank memory allocation (min/avg/max) = 2.376 | 4.616 | 9.668 Mbytes
Time Step Lx Pxx Pxy Pxz Ly Lz Pyy Pzz Pyz TotEng Temp Volume 
           0        0    4143.0751    12.766153 -4.17268e-14 -2.0470501e-14     57.10648     57.10648   -85.456504   -85.456504 -1.3852707e-14   -1486645.8            0     13511190 
       0.001        1    4143.0751    4.9624194 -2.8207648e-14 -4.4742498e-15     57.10648     57.10648   -95.172201   -95.172201 -4.9722991e-13   -1486647.7            0     13511190 
       0.002        2    4143.0751    2.7193318 -7.1603343e-14 -7.0642459e-15     57.10648     57.10648   -97.006352   -97.006352 3.9756873e-13   -1486647.7            0     13511190 
       0.003        3    4143.0751    3.2072967 -8.2216275e-14 -9.730847e-14     57.10648     57.10648   -96.140203   -96.140203 -1.2545152e-13   -1486647.8            0     13511190 
       0.004        4    4143.0751    2.6400573 8.1528058e-14 1.0039949e-14     57.10648     57.10648   -96.501525   -96.501525 4.4177881e-13   -1486647.8            0     13511190 
       0.005        5    4143.0751    1.8692697 6.3475605e-15 -1.3198638e-14     57.10648     57.10648   -97.038029   -97.038029 1.3279769e-14   -1486647.8            0     13511190 
       0.006        6    4143.0751    1.5880349 -1.0299072e-13 6.8941639e-14     57.10648     57.10648   -97.222835   -97.222835 -5.5710054e-13   -1486647.8            0     13511190 
       0.007        7    4143.0751    1.4304795 9.8981572e-14 6.338891e-14     57.10648     57.10648   -97.302236   -97.302236 6.3042709e-14   -1486647.8            0     13511190 
       0.008        8    4143.0751    1.3102667 6.1322223e-14 1.1897755e-13     57.10648     57.10648   -97.373091   -97.373091 -2.5545982e-14   -1486647.8            0     13511190 
       0.009        9    4143.0751    1.1651506 -3.3403603e-14 7.5795193e-15     57.10648     57.10648   -97.467596   -97.467596 3.1855412e-13   -1486647.8            0     13511190 
        0.01       10    4143.0751    1.0801049 -1.8540639e-14 8.7090068e-14     57.10648     57.10648   -97.519517   -97.519517 -6.9356404e-14   -1486647.8            0     13511190 
       0.011       11    4143.0751    1.0182961 1.7128728e-13 -5.3385911e-14     57.10648     57.10648    -97.55383    -97.55383 -1.837853e-13   -1486647.8            0     13511190 
       0.012       12    4143.0751   0.96492776 -5.3992368e-15 9.9115472e-14     57.10648     57.10648   -97.585187   -97.585187 -1.412602e-14   -1486647.8            0     13511190 
       0.013       13    4143.0751   0.90630688 2.134033e-15 1.5917778e-14     57.10648     57.10648   -97.622306   -97.622306 1.4845644e-13   -1486647.8            0     13511190 
       0.014       14    4143.0751   0.86458184 -5.2306905e-14 2.8478127e-14     57.10648     57.10648   -97.647661   -97.647661 1.3340089e-14   -1486647.8            0     13511190 
       0.015       15    4143.0751   0.83242506 -7.7720817e-14 -5.1885553e-14     57.10648     57.10648   -97.665622   -97.665622 -2.211149e-14   -1486647.8            0     13511190 
       0.016       16    4143.0751   0.80214445 -1.9576547e-13 6.1541365e-15     57.10648     57.10648   -97.683642   -97.683642 4.6519293e-14   -1486647.8            0     13511190 
       0.017       17    4143.0751   0.77060995 -9.3819911e-14 3.654431e-13     57.10648     57.10648   -97.703317   -97.703317 2.9415202e-14   -1486647.8            0     13511190 
       0.018       18    4143.0751   0.74604836 1.7546685e-13 5.6260197e-14     57.10648     57.10648   -97.718075   -97.718075 5.975927e-14   -1486647.8            0     13511190 
       0.019       19    4143.0751   0.72612731 -1.5426679e-13 2.5546711e-13     57.10648     57.10648   -97.729394   -97.729394 -3.9590612e-14   -1486647.8            0     13511190 
        0.02       20    4143.0751   0.70656473 -3.0987599e-15 -1.5570893e-13     57.10648     57.10648   -97.741056   -97.741056 1.162468e-13   -1486647.8            0     13511190 
       0.021       21    4143.0751   0.68688559 -4.2183057e-13 -8.8182176e-13     57.10648     57.10648   -97.753242   -97.753242 -4.1998317e-13   -1486647.8            0     13511190 
       0.022       22    4143.0751    0.6706913 -2.5526407e-12 -9.3985701e-12     57.10648     57.10648   -97.762917   -97.762917 -3.7495516e-12   -1486647.8            0     13511190 
       0.023       23    4143.0751   0.65754216 -1.5900984e-11 -6.0283933e-11     57.10648     57.10648    -97.77045    -97.77045 -2.4192621e-11   -1486647.8            0     13511190 
       0.024       24    4143.0751   0.64678453 -5.1705395e-11 -1.9304534e-10     57.10648     57.10648   -97.776845   -97.776845 -7.6216961e-11   -1486647.8            0     13511190 
       0.025       25    4143.0751   0.63572241 -1.684957e-11 -6.0488121e-11     57.10648     57.10648   -97.783604   -97.783604 -2.3292701e-11   -1486647.8            0     13511190 
       0.026       26    4143.0751   0.62405449 -2.586243e-12 -6.826633e-12     57.10648     57.10648   -97.790727   -97.790727 -2.4913884e-12   -1486647.8            0     13511190 
       0.027       27    4143.0751    0.6132679 -5.8416598e-13 8.1390242e-12     57.10648     57.10648   -97.797026   -97.797026 4.4603613e-15   -1486647.8            0     13511190 
       0.028       28    4143.0751   0.60491204 2.9463736e-12 3.4733372e-11     57.10648     57.10648   -97.801887   -97.801887 -5.7278854e-13   -1486647.8            0     13511190 
       0.029       29    4143.0751   0.59725053 4.0931002e-12 2.1917761e-11     57.10648     57.10648   -97.806486   -97.806486 -3.3449436e-12   -1486647.8            0     13511190 
        0.03       30    4143.0751   0.58818998 1.5591142e-12 6.6217449e-14     57.10648     57.10648   -97.812035   -97.812035 -2.5739943e-12   -1486647.8            0     13511190 
       0.031       31    4143.0751   0.57978268 1.9114073e-12 7.7455098e-12     57.10648     57.10648   -97.817069   -97.817069 -2.1870975e-12   -1486647.8            0     13511190 
       0.032       32    4143.0751   0.57306876 2.7187694e-12  4.19221e-11     57.10648     57.10648   -97.820966   -97.820966 2.5040743e-13   -1486647.8            0     13511190 
       0.033       33    4143.0751     0.567371 1.0399753e-12 3.2573468e-11     57.10648     57.10648   -97.824311   -97.824311 2.1325684e-12   -1486647.8            0     13511190 
       0.034       34    4143.0751   0.56000729 1.5205307e-12 1.2195232e-11     57.10648     57.10648   -97.828769   -97.828769 2.2629474e-12   -1486647.8            0     13511190 
       0.035       35    4143.0751   0.55330717 7.0238886e-12 8.8717504e-12     57.10648     57.10648   -97.832843   -97.832843 5.4683315e-12   -1486647.8            0     13511190 
       0.036       36    4143.0751   0.54800513 1.5067667e-11 5.5846208e-12     57.10648     57.10648   -97.835981   -97.835981 1.0000204e-11   -1486647.8            0     13511190 
       0.037       37    4143.0751   0.54283486 6.1264642e-12 2.1704474e-12     57.10648     57.10648   -97.838992   -97.838992 3.9500318e-12   -1486647.8            0     13511190 
       0.038       38    4143.0751   0.53718217 2.3289052e-12 7.0206241e-12     57.10648     57.10648   -97.842344   -97.842344 2.433038e-12   -1486647.8            0     13511190 
       0.039       39    4143.0751   0.53179695 -1.8591314e-13 2.064332e-11     57.10648     57.10648   -97.845619   -97.845619 1.4700436e-12   -1486647.8            0     13511190 
        0.04       40    4143.0751   0.52733099 -6.8642247e-14 1.7071021e-11     57.10648     57.10648   -97.848317   -97.848317 -2.388729e-14   -1486647.8            0     13511190 
       0.041       41    4143.0751   0.52241019 2.1860661e-14 1.0574016e-11     57.10648     57.10648   -97.851216   -97.851216 -1.4684987e-13   -1486647.8            0     13511190 
       0.042       42    4143.0751   0.51801333 -5.3867884e-12 1.822649e-11     57.10648     57.10648   -97.853787   -97.853787 6.8486116e-13   -1486647.8            0     13511190 
       0.043       43    4143.0751   0.51402695 -1.0931109e-11 2.2053328e-11     57.10648     57.10648   -97.856172   -97.856172 1.0609057e-12   -1486647.8            0     13511190 
       0.044       44    4143.0751   0.50962864 -5.0047783e-12 7.9971664e-12     57.10648     57.10648   -97.858842   -97.858842 8.194779e-13   -1486647.8            0     13511190 
       0.045       45    4143.0751   0.50537513 -2.6370625e-12 4.1645928e-12     57.10648     57.10648   -97.861394   -97.861394 3.0168439e-12   -1486647.8            0     13511190 
       0.046       46    4143.0751   0.50180935 -1.6514747e-12 2.3071989e-12     57.10648     57.10648   -97.863485   -97.863485 5.0921847e-12   -1486647.8            0     13511190 
       0.047       47    4143.0751   0.49841719 -2.4050887e-12 1.7938537e-12     57.10648     57.10648   -97.865476   -97.865476 1.6631828e-12   -1486647.8            0     13511190 
       0.048       48    4143.0751   0.49441913 -3.464679e-12 3.6216017e-12     57.10648     57.10648    -97.86788    -97.86788 6.5191395e-13   -1486647.8            0     13511190 
       0.049       49    4143.0751    0.4909017 -4.1878638e-12 5.9567479e-12     57.10648     57.10648    -97.87001    -97.87001 1.653962e-13   -1486647.8            0     13511190 
        0.05       50    4143.0751   0.48776051 -3.8408751e-12 2.844358e-12     57.10648     57.10648   -97.871884   -97.871884 -3.1856402e-13   -1486647.8            0     13511190 
       0.051       51    4143.0751   0.48442517 -3.8218176e-12 -8.682206e-14     57.10648     57.10648   -97.873839   -97.873839 -2.065984e-13   -1486647.8            0     13511190 
       0.052       52    4143.0751   0.48130287 -5.7404844e-12 -1.2735328e-12     57.10648     57.10648   -97.875687   -97.875687 -5.0194622e-15   -1486647.8            0     13511190 
       0.053       53    4143.0751   0.47832418 -5.0425735e-12 -2.3507602e-12     57.10648     57.10648   -97.877482   -97.877482 -3.6449385e-13   -1486647.8            0     13511190 
       0.054       54    4143.0751   0.47523769 -4.0372055e-12 -2.1425512e-12     57.10648     57.10648   -97.879347   -97.879347 -2.2535486e-13   -1486647.8            0     13511190 
       0.055       55    4143.0751    0.4722506 -7.4846562e-12 3.8826912e-13     57.10648     57.10648   -97.881117   -97.881117 9.1604408e-13   -1486647.8            0     13511190 
       0.056       56    4143.0751   0.46974107 -8.2819636e-12 3.5740226e-12     57.10648     57.10648    -97.88259    -97.88259 1.8532668e-12   -1486647.8            0     13511190 
       0.057       57    4143.0751   0.46704752 -5.9979164e-12 3.7380932e-12     57.10648     57.10648    -97.88419    -97.88419 1.0884714e-12   -1486647.8            0     13511190 
       0.058       58    4143.0751   0.46412182 -7.7973358e-12 5.9398965e-12     57.10648     57.10648   -97.885957   -97.885957 1.900549e-12   -1486647.8            0     13511190 
       0.059       59    4143.0751   0.46164683 -1.0540543e-11 8.3121443e-12     57.10648     57.10648   -97.887444   -97.887444 2.7180709e-12   -1486647.8            0     13511190 
        0.06       60    4143.0751   0.45917507 -7.4558073e-12 5.0320426e-12     57.10648     57.10648   -97.888905   -97.888905 1.7894524e-12   -1486647.8            0     13511190 
       0.061       61    4143.0751   0.45670634 -1.0589093e-11 6.3403862e-12     57.10648     57.10648   -97.890357   -97.890357 2.3849648e-12   -1486647.8            0     13511190 
       0.062       62    4143.0751   0.45436906 -1.9621108e-11 1.2182224e-11     57.10648     57.10648   -97.891754   -97.891754 4.6681985e-12   -1486647.8            0     13511190 
       0.063       63    4143.0751   0.45205555 -1.301681e-11 8.0507214e-12     57.10648     57.10648   -97.893151   -97.893151 3.1568051e-12   -1486647.8            0     13511190 
       0.064       64    4143.0751   0.44965941 -1.3028466e-11 7.4047315e-12     57.10648     57.10648   -97.894586   -97.894586 3.6676583e-12   -1486647.8            0     13511190 
       0.065       65    4143.0751   0.44749547 -2.018502e-11 1.211189e-11     57.10648     57.10648    -97.89586    -97.89586 6.7496722e-12   -1486647.8            0     13511190 
       0.066       66    4143.0751   0.44551718 -1.3474555e-11 1.0629941e-11     57.10648     57.10648   -97.897028   -97.897028 5.2392424e-12   -1486647.8            0     13511190 
       0.067       67    4143.0751   0.44324346 -9.2059161e-12 7.8926166e-12     57.10648     57.10648    -97.89839    -97.89839 3.6799331e-12   -1486647.8            0     13511190 
       0.068       68    4143.0751   0.44112765 -1.1312227e-11 7.2080846e-12     57.10648     57.10648   -97.899666   -97.899666 4.0777734e-12   -1486647.8            0     13511190 
       0.069       69    4143.0751   0.43917743 -7.9568393e-12 5.1831575e-12     57.10648     57.10648   -97.900829   -97.900829 2.7581342e-12   -1486647.8            0     13511190 
        0.07       70    4143.0751   0.43713891 -4.6520423e-12 3.5668729e-12     57.10648     57.10648    -97.90203    -97.90203 1.4971945e-12   -1486647.8            0     13511190 
       0.071       71    4143.0751   0.43523282 -6.0282698e-12 2.792299e-12     57.10648     57.10648   -97.903159   -97.903159 1.1625355e-12   -1486647.8            0     13511190 
       0.072       72    4143.0751   0.43333724 -4.2859102e-12 1.6578424e-12     57.10648     57.10648   -97.904297   -97.904297 5.6595759e-13   -1486647.8            0     13511190 
       0.073       73    4143.0751   0.43136456 -2.2351804e-12 1.1131083e-12     57.10648     57.10648   -97.905485   -97.905485 -7.6133637e-14   -1486647.8            0     13511190 
       0.074       74    4143.0751   0.42950019 -2.4046332e-12 7.7675674e-13     57.10648     57.10648   -97.906592   -97.906592 -4.8478061e-13   -1486647.8            0     13511190 
       0.075       75    4143.0751   0.42781093 -2.3407506e-12 -3.4445053e-13     57.10648     57.10648   -97.907588   -97.907588 -4.8843367e-13   -1486647.8            0     13511190 
       0.076       76    4143.0751   0.42599028 -1.8979688e-12 -2.3259338e-13     57.10648     57.10648    -97.90867    -97.90867 -2.2709966e-13   -1486647.8            0     13511190 
       0.077       77    4143.0751   0.42413454 -2.4007298e-12 1.6657483e-12     57.10648     57.10648   -97.909786   -97.909786 -2.262183e-13   -1486647.8            0     13511190 
       0.078       78    4143.0751   0.42250297 -2.4300716e-12 2.708656e-12     57.10648     57.10648   -97.910765   -97.910765 -5.1304856e-13   -1486647.8            0     13511190 
       0.079       79    4143.0751   0.42078464 -1.7897908e-12 1.330318e-12     57.10648     57.10648   -97.911784   -97.911784 -3.9678833e-13   -1486647.8            0     13511190 
        0.08       80    4143.0751   0.41914682 -1.921184e-12 7.3528278e-13     57.10648     57.10648    -97.91275    -97.91275 1.7342576e-13   -1486647.8            0     13511190 
       0.081       81    4143.0751   0.41758446 -1.8429746e-12 3.5171871e-13     57.10648     57.10648   -97.913681   -97.913681 2.9832043e-13   -1486647.8            0     13511190 
       0.082       82    4143.0751   0.41588405 -1.4413091e-12 -7.9225285e-14     57.10648     57.10648   -97.914705   -97.914705 7.8153975e-15   -1486647.8            0     13511190 
       0.083       83    4143.0751   0.41424183 -1.6543782e-12 4.8002069e-13     57.10648     57.10648   -97.915687   -97.915687 1.8890453e-13   -1486647.8            0     13511190 
       0.084       84    4143.0751   0.41275118 -1.4479944e-12 5.4586376e-13     57.10648     57.10648   -97.916569   -97.916569 3.653488e-13   -1486647.8            0     13511190 
       0.085       85    4143.0751   0.41125556 -7.7289631e-13 -1.6717478e-13     57.10648     57.10648   -97.917453   -97.917453 1.9341735e-14   -1486647.8            0     13511190 
       0.086       86    4143.0751   0.40967376 -1.8439952e-12 -2.0356676e-13     57.10648     57.10648   -97.918399   -97.918399 5.0903165e-13   -1486647.8            0     13511190 
       0.087       87    4143.0751     0.408206 -2.1489817e-12 1.6229379e-13     57.10648     57.10648   -97.919281   -97.919281 8.4030716e-13   -1486647.8            0     13511190 
       0.088       88    4143.0751   0.40671643 -1.6928949e-12 1.9725227e-14     57.10648     57.10648   -97.920171   -97.920171 5.0220879e-13   -1486647.8            0     13511190 
       0.089       89    4143.0751   0.40524316 -1.9402991e-12 -1.2489313e-13     57.10648     57.10648   -97.921041   -97.921041 9.290463e-13   -1486647.8            0     13511190 
        0.09       90    4143.0751   0.40389786 -1.8345108e-12 -2.9966815e-13     57.10648     57.10648   -97.921838   -97.921838 1.384795e-12   -1486647.8            0     13511190 
       0.091       91    4143.0751   0.40243015 -1.6972852e-12 -1.7080357e-13     57.10648     57.10648   -97.922717   -97.922717 7.6913253e-13   -1486647.8            0     13511190 
       0.092       92    4143.0751   0.40098057 -2.0258245e-12 -1.0768963e-13     57.10648     57.10648   -97.923588   -97.923588 3.7651349e-13   -1486647.8            0     13511190 
       0.093       93    4143.0751   0.39964609 -1.8873686e-12 -2.4963573e-13     57.10648     57.10648   -97.924382   -97.924382 2.3864768e-13   -1486647.8            0     13511190 
       0.094       94    4143.0751   0.39828615 -1.258469e-12 -8.0272398e-13     57.10648     57.10648   -97.925186   -97.925186 -3.7389699e-14   -1486647.8            0     13511190 
       0.095       95    4143.0751   0.39691982 -1.4927242e-12 -9.3441725e-13     57.10648     57.10648   -97.925997   -97.925997 -7.7454053e-13   -1486647.8            0     13511190 
       0.096       96    4143.0751    0.3955953 -1.8649261e-12 -7.2110863e-13     57.10648     57.10648   -97.926792   -97.926792 -8.4762635e-13   -1486647.8            0     13511190 
       0.097       97    4143.0751   0.39425994 -1.5972877e-12 -4.6443171e-13     57.10648     57.10648   -97.927593   -97.927593 -4.5336788e-13   -1486647.8            0     13511190 
       0.098       98    4143.0751    0.3929232 -2.1574108e-12 -7.4255041e-13     57.10648     57.10648   -97.928387   -97.928387 -5.3678514e-13   -1486647.8            0     13511190 
       0.099       99    4143.0751   0.39170502 -1.787893e-12 -8.377728e-13     57.10648     57.10648   -97.929107   -97.929107 -2.8377826e-13   -1486647.8            0     13511190 
         0.1      100    4143.0751   0.39042411 -1.3982467e-12 -4.4875221e-13     57.10648     57.10648   -97.929869   -97.929869 -7.1697158e-14   -1486647.8            0     13511190 
       0.101      101    4143.0751   0.38909906 -1.8702653e-12 3.1224464e-13     57.10648     57.10648   -97.930665   -97.930665 1.2336438e-13   -1486647.8            0     13511190 
       0.102      102    4143.0751   0.38787893 -2.0358317e-12 1.8627784e-13     57.10648     57.10648   -97.931395   -97.931395 1.3821692e-13   -1486647.8            0     13511190 
       0.103      103    4143.0751    0.3866158 -1.7391678e-12 -5.5435958e-16     57.10648     57.10648   -97.932144   -97.932144 -3.677509e-14   -1486647.8            0     13511190 
       0.104      104    4143.0751   0.38539488 -2.2299345e-12 -2.5739499e-13     57.10648     57.10648   -97.932867   -97.932867 1.5367319e-13   -1486647.8            0     13511190 
       0.105      105    4143.0751   0.38421578 -2.760546e-12 -5.5087889e-13     57.10648     57.10648    -97.93357    -97.93357 -7.7770067e-15   -1486647.8            0     13511190 
       0.106      106    4143.0751   0.38296597 -1.7109897e-12 -5.9335232e-13     57.10648     57.10648    -97.93432    -97.93432 2.0366309e-14   -1486647.8            0     13511190 
       0.107      107    4143.0751    0.3817383 -2.054339e-12 8.9656115e-14     57.10648     57.10648   -97.935054   -97.935054 -2.4787765e-13   -1486647.8            0     13511190 
       0.108      108    4143.0751   0.38059646 -2.7054748e-12 2.788877e-13     57.10648     57.10648    -97.93573    -97.93573 -5.0750887e-14   -1486647.8            0     13511190 
       0.109      109    4143.0751   0.37943662 -2.417651e-12 1.9807285e-14     57.10648     57.10648   -97.936417   -97.936417 -2.5522519e-14   -1486647.8            0     13511190 
        0.11      110    4143.0751   0.37821952 -2.9737817e-12 9.8661924e-14     57.10648     57.10648   -97.937145   -97.937145 1.8610348e-13   -1486647.8            0     13511190 
       0.111      111    4143.0751   0.37708039 -3.0595607e-12 4.4623688e-14     57.10648     57.10648   -97.937828   -97.937828 2.2054893e-13   -1486647.8            0     13511190 
       0.112      112    4143.0751   0.37591875 -2.6899262e-12 5.5537881e-13     57.10648     57.10648   -97.938521   -97.938521 2.1865816e-13   -1486647.8            0     13511190 
       0.113      113    4143.0751   0.37476891 -2.889223e-12 9.7358865e-13     57.10648     57.10648   -97.939201   -97.939201 2.3414624e-14   -1486647.8            0     13511190 
       0.114      114    4143.0751   0.37369183 -3.211316e-12 9.897883e-13     57.10648     57.10648   -97.939841   -97.939841 1.291789e-13   -1486647.8            0     13511190 
       0.115      115    4143.0751   0.37253532 -2.9734701e-12 4.3222687e-13     57.10648     57.10648   -97.940533   -97.940533 1.8473079e-13   -1486647.8            0     13511190 
       0.116      116    4143.0751   0.37140254 -3.1924019e-12 4.6921416e-13     57.10648     57.10648   -97.941212   -97.941212 1.2657107e-13   -1486647.8            0     13511190 
       0.117      117    4143.0751   0.37032909 -2.452373e-12 5.7832331e-13     57.10648     57.10648   -97.941851   -97.941851 1.9016447e-16   -1486647.8            0     13511190 
       0.118      118    4143.0751   0.36922799 -1.7535931e-12 1.2241835e-13     57.10648     57.10648   -97.942503   -97.942503 -9.058175e-15   -1486647.8            0     13511190 
       0.119      119    4143.0751   0.36812694 -2.1628375e-12 -1.7818851e-13     57.10648     57.10648   -97.943158   -97.943158 2.3408472e-13   -1486647.8            0     13511190 
        0.12      120    4143.0751   0.36704322 -2.1702999e-12 -1.152761e-14     57.10648     57.10648   -97.943807   -97.943807 5.9946763e-14   -1486647.8            0     13511190 
       0.121      121    4143.0751   0.36594032 -2.1642654e-12 4.342435e-14     57.10648     57.10648   -97.944467   -97.944467  3.60196e-13   -1486647.8            0     13511190 
       0.122      122    4143.0751   0.36485133 -2.8336387e-12 2.0060502e-13     57.10648     57.10648   -97.945114   -97.945114 3.3696624e-13   -1486647.8            0     13511190 
       0.123      123    4143.0751   0.36383605 -2.5538855e-12 -1.3363868e-13     57.10648     57.10648   -97.945715   -97.945715 4.0376458e-13   -1486647.8            0     13511190 
       0.124      124    4143.0751   0.36275678 -2.2624155e-12 -7.4191069e-14     57.10648     57.10648   -97.946358   -97.946358 3.9492925e-13   -1486647.8            0     13511190 
       0.125      125    4143.0751   0.36166993 -2.8568581e-12 1.4759849e-13     57.10648     57.10648    -97.94701    -97.94701   3.8268e-13   -1486647.8            0     13511190 
       0.126      126    4143.0751   0.36065371 -3.0970433e-12 6.1293956e-15     57.10648     57.10648   -97.947617   -97.947617  1.86555e-13   -1486647.8            0     13511190 
       0.127      127    4143.0751   0.35959909 -2.7228139e-12 8.9696403e-14     57.10648     57.10648   -97.948243   -97.948243 -9.4768251e-14   -1486647.8            0     13511190 
       0.128      128    4143.0751   0.35857438 -3.195507e-12 2.1033353e-13     57.10648     57.10648    -97.94885    -97.94885 -1.2611648e-13   -1486647.8            0     13511190 
       0.129      129    4143.0751    0.3575488 -3.1025632e-12 1.005515e-13     57.10648     57.10648   -97.949463   -97.949463 -2.3208665e-13   -1486647.8            0     13511190 
        0.13      130    4143.0751   0.35648744 -2.5992891e-12 -1.9425459e-13     57.10648     57.10648   -97.950098   -97.950098 -3.8841683e-14   -1486647.8            0     13511190 
       0.131      131    4143.0751   0.35546533 -3.0284364e-12 5.5263752e-14     57.10648     57.10648   -97.950708   -97.950708 -1.5289741e-13   -1486647.8            0     13511190 
       0.132      132    4143.0751   0.35446986 -2.9599174e-12 -1.0342402e-13     57.10648     57.10648   -97.951298   -97.951298 -1.4250395e-15   -1486647.8            0     13511190 
       0.133      133    4143.0751   0.35345139 -2.7919832e-12 -1.1866657e-14     57.10648     57.10648   -97.951903   -97.951903 8.514895e-14   -1486647.8            0     13511190 
       0.134      134    4143.0751   0.35242733 -2.8558967e-12 2.5811185e-13     57.10648     57.10648   -97.952515   -97.952515 1.5726448e-13   -1486647.8            0     13511190 
       0.135      135    4143.0751   0.35143374 -2.7765404e-12 3.2898811e-13     57.10648     57.10648    -97.95311    -97.95311 3.0733258e-13   -1486647.8            0     13511190 
       0.136      136    4143.0751   0.35041172 -2.8955358e-12  2.02106e-13     57.10648     57.10648   -97.953719   -97.953719 1.3471917e-13   -1486647.8            0     13511190 
       0.137      137    4143.0751   0.34943251 -2.4560412e-12 6.4059776e-15     57.10648     57.10648   -97.954299   -97.954299 3.0024546e-13   -1486647.8            0     13511190 
       0.138      138    4143.0751   0.34846624 -1.8802849e-12 1.7303967e-13     57.10648     57.10648   -97.954874   -97.954874 1.4141087e-13   -1486647.8            0     13511190 
       0.139      139    4143.0751    0.3474345 -1.9391366e-12 3.2616854e-13     57.10648     57.10648   -97.955491   -97.955491 2.8564497e-13   -1486647.8            0     13511190 
        0.14      140    4143.0751   0.34645634 -1.6173753e-12 5.9775238e-13     57.10648     57.10648   -97.956076   -97.956076 2.410171e-13   -1486647.8            0     13511190 
       0.141      141    4143.0751   0.34548134 -1.239545e-12 2.7810859e-13     57.10648     57.10648   -97.956656   -97.956656 2.2703748e-13   -1486647.8            0     13511190 
       0.142      142    4143.0751   0.34448812 -1.5146599e-12 3.4789749e-13     57.10648     57.10648   -97.957245   -97.957245 5.7845037e-15   -1486647.8            0     13511190 
       0.143      143    4143.0751   0.34352653 -1.4954932e-12 3.6406034e-13     57.10648     57.10648   -97.957818   -97.957818 2.4213087e-13   -1486647.8            0     13511190 
       0.144      144    4143.0751   0.34254845 -1.1298709e-12 2.3692161e-13     57.10648     57.10648   -97.958403   -97.958403 4.1369273e-15   -1486647.8            0     13511190 
       0.145      145    4143.0751   0.34155456 -1.1006755e-12 4.1269911e-13     57.10648     57.10648   -97.958997   -97.958997 6.3401853e-15   -1486647.8            0     13511190 
       0.146      146    4143.0751   0.34059876 -9.4501882e-13 3.7390275e-13     57.10648     57.10648   -97.959565   -97.959565 1.758878e-14   -1486647.8            0     13511190 
       0.147      147    4143.0751   0.33965976 -2.4458889e-13 2.7545059e-13     57.10648     57.10648   -97.960122   -97.960122 -6.1293383e-14   -1486647.8            0     13511190 
       0.148      148    4143.0751   0.33867462 -1.3088513e-13 4.4670286e-13     57.10648     57.10648    -97.96071    -97.96071 -4.2710476e-14   -1486647.8            0     13511190 
       0.149      149    4143.0751   0.33771827 -4.2453698e-13 5.9244466e-13     57.10648     57.10648   -97.961282   -97.961282 4.238531e-14   -1486647.8            0     13511190 
        0.15      150    4143.0751   0.33676577 -4.0494431e-13 3.8488526e-13     57.10648     57.10648   -97.961851   -97.961851 -2.5102843e-13   -1486647.8            0     13511190 
       0.151      151    4143.0751   0.33579044 -2.8156164e-13 -1.5019551e-14     57.10648     57.10648    -97.96243    -97.96243 -7.5748535e-14   -1486647.8            0     13511190 
       0.152      152    4143.0751   0.33486735 -3.9212322e-13 4.1283815e-13     57.10648     57.10648   -97.962978   -97.962978 -4.2084702e-14   -1486647.8            0     13511190 
       0.153      153    4143.0751   0.33390577 -2.4648333e-13 2.1393104e-13     57.10648     57.10648   -97.963552   -97.963552 -1.0435141e-13   -1486647.8            0     13511190 
       0.154      154    4143.0751   0.33293013 -2.145722e-13 1.1445767e-13     57.10648     57.10648   -97.964136   -97.964136 5.2464577e-14   -1486647.8            0     13511190 
       0.155      155    4143.0751   0.33200617 -1.30139e-13 3.6739479e-13     57.10648     57.10648   -97.964686   -97.964686 1.400411e-13   -1486647.8            0     13511190 
       0.156      156    4143.0751   0.33106555 7.839955e-14 4.4074089e-13     57.10648     57.10648   -97.965245   -97.965245 1.315677e-13   -1486647.8            0     13511190 
       0.157      157    4143.0751   0.33011504 -1.71608e-13 3.4838319e-13     57.10648     57.10648    -97.96581    -97.96581 1.972141e-13   -1486647.8            0     13511190 
       0.158      158    4143.0751   0.32917898 -5.5229959e-13 3.0960209e-13     57.10648     57.10648   -97.966369   -97.966369 2.5826615e-13   -1486647.8            0     13511190 
       0.159      159    4143.0751   0.32823648 -4.2105854e-13 4.9937321e-13     57.10648     57.10648   -97.966933   -97.966933 2.9784074e-13   -1486647.8            0     13511190 
        0.16      160    4143.0751   0.32728557 -5.9177311e-13 3.9382895e-13     57.10648     57.10648   -97.967499   -97.967499 3.2519156e-13   -1486647.8            0     13511190 
       0.161      161    4143.0751   0.32637715 -3.5297239e-13 2.6423685e-13     57.10648     57.10648   -97.968038   -97.968038 9.4404733e-14   -1486647.8            0     13511190 
       0.162      162    4143.0751   0.32544499 -3.1488086e-13 1.3074884e-14     57.10648     57.10648   -97.968593   -97.968593 4.5478438e-15   -1486647.8            0     13511190 
       0.163      163    4143.0751   0.32448563 -2.0578892e-13 1.2026286e-13     57.10648     57.10648   -97.969166   -97.969166 9.0002838e-14   -1486647.8            0     13511190 
       0.164      164    4143.0751   0.32357287 1.535592e-13 1.7420119e-13     57.10648     57.10648   -97.969712   -97.969712 1.3209404e-13   -1486647.8            0     13511190 
       0.165      165    4143.0751   0.32263436 6.1526052e-13 3.6241453e-14     57.10648     57.10648    -97.97027    -97.97027 3.7761844e-15   -1486647.8            0     13511190 
       0.166      166    4143.0751   0.32170969 3.5322126e-13 9.0574673e-15     57.10648     57.10648   -97.970819   -97.970819 -1.3738078e-13   -1486647.8            0     13511190 
       0.167      167    4143.0751   0.32079912 1.7240506e-13 1.9564987e-14     57.10648     57.10648   -97.971361   -97.971361 -2.5431844e-14   -1486647.8            0     13511190 
       0.168      168    4143.0751   0.31984735 3.0453116e-13 1.4198242e-14     57.10648     57.10648    -97.97193    -97.97193 8.5589903e-14   -1486647.8            0     13511190 
       0.169      169    4143.0751   0.31891872 4.7596063e-13 2.4560472e-13     57.10648     57.10648   -97.972485   -97.972485 2.6761173e-13   -1486647.8            0     13511190 
        0.17      170    4143.0751   0.31800888 4.2566937e-13 3.5463712e-13     57.10648     57.10648   -97.973026   -97.973026 2.5373883e-13   -1486647.8            0     13511190 
       0.171      171    4143.0751    0.3170835 4.4227004e-13 4.6410168e-13     57.10648     57.10648   -97.973575   -97.973575 1.2734859e-13   -1486647.8            0     13511190 
       0.172      172    4143.0751   0.31615352 4.4518761e-13 4.0840498e-13     57.10648     57.10648    -97.97413    -97.97413  1.90333e-13   -1486647.8            0     13511190 
       0.173      173    4143.0751   0.31523976 5.7553293e-13 2.0349676e-13     57.10648     57.10648   -97.974676   -97.974676 2.1391164e-13   -1486647.8            0     13511190 
       0.174      174    4143.0751   0.31430611 5.0754157e-13 2.3361727e-13     57.10648     57.10648   -97.975233   -97.975233 3.6965472e-13   -1486647.8            0     13511190 
       0.175      175    4143.0751   0.31338711 4.7947684e-13 2.765345e-13     57.10648     57.10648   -97.975779   -97.975779 2.692644e-13   -1486647.8            0     13511190 
       0.176      176    4143.0751   0.31249292 6.4187635e-13 3.0030248e-13     57.10648     57.10648   -97.976311   -97.976311 1.6728845e-13   -1486647.8            0     13511190 
       0.177      177    4143.0751   0.31155299 3.4278914e-13 1.441642e-13     57.10648     57.10648   -97.976872   -97.976872 3.4373242e-13   -1486647.8            0     13511190 
       0.178      178    4143.0751   0.31063776 4.6831745e-13 4.308295e-13     57.10648     57.10648   -97.977419   -97.977419 3.7461214e-13   -1486647.8            0     13511190 
       0.179      179    4143.0751   0.30973073 3.1916075e-13 5.0007439e-13     57.10648     57.10648   -97.977959   -97.977959 3.8855716e-13   -1486647.8            0     13511190 
        0.18      180    4143.0751   0.30880453 -1.6043543e-13 6.7832937e-13     57.10648     57.10648   -97.978509   -97.978509 4.1139294e-13   -1486647.8            0     13511190 
       0.181      181    4143.0751   0.30790807 -5.990908e-13 8.0394202e-13     57.10648     57.10648   -97.979043   -97.979043 3.6184412e-13   -1486647.8            0     13511190 
       0.182      182    4143.0751   0.30698697 -7.1732651e-13 7.9886646e-13     57.10648     57.10648   -97.979593   -97.979593 1.087413e-13   -1486647.8            0     13511190 
       0.183      183    4143.0751   0.30605396 -3.7518539e-13 8.4026649e-13     57.10648     57.10648    -97.98015    -97.98015 1.0348531e-13   -1486647.8            0     13511190 
       0.184      184    4143.0751   0.30514879 -1.7661568e-13 3.3170266e-13     57.10648     57.10648   -97.980689   -97.980689 2.3729026e-13   -1486647.8            0     13511190 
       0.185      185    4143.0751   0.30424509 -6.1778944e-13 4.7187256e-13     57.10648     57.10648   -97.981226   -97.981226 1.3542452e-13   -1486647.8            0     13511190 
       0.186      186    4143.0751   0.30332161 -9.6415058e-13 7.7835107e-13     57.10648     57.10648   -97.981776   -97.981776 1.5509299e-13   -1486647.8            0     13511190 
       0.187      187    4143.0751   0.30240962 -6.8177908e-13 6.4708525e-13     57.10648     57.10648   -97.982321   -97.982321 8.4153824e-14   -1486647.8            0     13511190 
       0.188      188    4143.0751    0.3014979 -5.329117e-13 2.3402719e-13     57.10648     57.10648   -97.982865   -97.982865 4.0663035e-14   -1486647.8            0     13511190 
       0.189      189    4143.0751   0.30057147 -8.6100278e-13 1.7158929e-13     57.10648     57.10648   -97.983416   -97.983416 2.8665762e-13   -1486647.8            0     13511190 
        0.19      190    4143.0751   0.29968316 -1.2918208e-12 7.0293711e-13     57.10648     57.10648   -97.983944   -97.983944 2.1533449e-13   -1486647.8            0     13511190 
       0.191      191    4143.0751   0.29876801 -1.3705854e-12 9.2911125e-13     57.10648     57.10648   -97.984489   -97.984489 3.3147119e-13   -1486647.8            0     13511190 
       0.192      192    4143.0751   0.29783761 -1.2159551e-12 5.8007149e-13     57.10648     57.10648   -97.985046   -97.985046 7.8732007e-14   -1486647.8            0     13511190 
       0.193      193    4143.0751   0.29694353 -1.0814197e-12 3.7161723e-13     57.10648     57.10648   -97.985579   -97.985579 1.2345247e-13   -1486647.8            0     13511190 
       0.194      194    4143.0751   0.29602245 -1.2494612e-12 3.3370835e-13     57.10648     57.10648   -97.986127   -97.986127 1.5216705e-13   -1486647.8            0     13511190 
       0.195      195    4143.0751   0.29511057 -1.2700182e-12 3.5761075e-13     57.10648     57.10648   -97.986669   -97.986669 3.5593584e-14   -1486647.8            0     13511190 
       0.196      196    4143.0751   0.29420793 -1.313005e-12 5.5442491e-13     57.10648     57.10648   -97.987207   -97.987207 2.2664776e-14   -1486647.8            0     13511190 
       0.197      197    4143.0751   0.29328256 -1.6125382e-12 6.0955457e-13     57.10648     57.10648    -97.98776    -97.98776 4.6025679e-14   -1486647.8            0     13511190 
       0.198      198    4143.0751   0.29236565 -1.931194e-12 5.497636e-13     57.10648     57.10648   -97.988307   -97.988307 6.0322807e-14   -1486647.8            0     13511190 
       0.199      199    4143.0751    0.2914649 -1.9542764e-12 3.1223029e-13     57.10648     57.10648   -97.988842   -97.988842 1.2050702e-13   -1486647.8            0     13511190 
         0.2      200    4143.0751   0.29054982 -1.3018684e-12 4.1764461e-13     57.10648     57.10648   -97.989386   -97.989386 1.2328003e-13   -1486647.8            0     13511190 
       0.201      201    4143.0751   0.28962635 -1.1323124e-12 6.5756051e-13     57.10648     57.10648   -97.989937   -97.989937 6.8558998e-14   -1486647.8            0     13511190 
       0.202      202    4143.0751   0.28872537 -1.1543147e-12 5.7602081e-13     57.10648     57.10648   -97.990476   -97.990476 1.3035516e-13   -1486647.8            0     13511190 
       0.203      203    4143.0751   0.28780104 -1.52378e-12 7.4632812e-13     57.10648     57.10648   -97.991026   -97.991026 3.1328917e-13   -1486647.8            0     13511190 
       0.204      204    4143.0751   0.28689435 -1.7296305e-12 7.1771211e-13     57.10648     57.10648   -97.991565   -97.991565 6.2463708e-14   -1486647.8            0     13511190 
       0.205      205    4143.0751   0.28600148 -1.4104612e-12 7.8024327e-13     57.10648     57.10648   -97.992096   -97.992096 -1.4089785e-13   -1486647.8            0     13511190 
       0.206      206    4143.0751   0.28506715 -1.5204534e-12 1.0570316e-12     57.10648     57.10648   -97.992654   -97.992654 1.2733708e-13   -1486647.8            0     13511190 
       0.207      207    4143.0751   0.28415949 -1.5703348e-12 1.1894422e-12     57.10648     57.10648   -97.993197   -97.993197 2.206269e-13   -1486647.8            0     13511190 
       0.208      208    4143.0751   0.28325292 -1.4098767e-12 1.3196591e-12     57.10648     57.10648   -97.993736   -97.993736 5.0733442e-14   -1486647.8            0     13511190 
       0.209      209    4143.0751   0.28233297 -1.4156344e-12 1.1851505e-12     57.10648     57.10648   -97.994283   -97.994283 6.288864e-14   -1486647.8            0     13511190 
        0.21      210    4143.0751      0.28143 -1.2349538e-12  1.05374e-12     57.10648     57.10648   -97.994821   -97.994821 1.2427719e-13   -1486647.8            0     13511190 
       0.211      211    4143.0751   0.28051191 -1.3759894e-12 6.1748932e-13     57.10648     57.10648   -97.995369   -97.995369 2.0584108e-13   -1486647.8            0     13511190 
       0.212      212    4143.0751   0.27958421 -1.3510328e-12 6.9679959e-13     57.10648     57.10648   -97.995923   -97.995923 1.6704229e-13   -1486647.8            0     13511190 
       0.213      213    4143.0751   0.27867651 -1.0348773e-12 4.7668015e-13     57.10648     57.10648   -97.996463   -97.996463 1.5251189e-13   -1486647.8            0     13511190 
       0.214      214    4143.0751   0.27777376 -8.7240123e-13 6.4991074e-13     57.10648     57.10648   -97.996999   -97.996999 1.9827867e-13   -1486647.8            0     13511190 
       0.215      215    4143.0751   0.27684409 -8.4106313e-13 5.2959909e-13     57.10648     57.10648   -97.997553   -97.997553 9.4616919e-15   -1486647.8            0     13511190 
       0.216      216    4143.0751   0.27593224 -9.4973482e-13  2.30542e-13     57.10648     57.10648   -97.998098   -97.998098 4.2372517e-14   -1486647.8            0     13511190 
       0.217      217    4143.0751   0.27501917 -7.0639895e-13 1.5434561e-13     57.10648     57.10648   -97.998643   -97.998643 7.3299145e-14   -1486647.8            0     13511190 
       0.218      218    4143.0751   0.27409252 -8.9650228e-13 -1.4155911e-13     57.10648     57.10648   -97.999194   -97.999194 -1.2605839e-13   -1486647.8            0     13511190 
       0.219      219    4143.0751    0.2731975 -7.7552923e-13 -2.8170733e-13     57.10648     57.10648   -97.999726   -97.999726 -2.0832931e-13   -1486647.8            0     13511190 
        0.22      220    4143.0751   0.27227258 -6.3202036e-13 -1.6529902e-13     57.10648     57.10648   -98.000278   -98.000278 -1.7947828e-13   -1486647.8            0     13511190 
       0.221      221    4143.0751    0.2713418 -5.5749908e-13 2.8310749e-13     57.10648     57.10648   -98.000834   -98.000834 -1.1894126e-13   -1486647.8            0     13511190 
       0.222      222    4143.0751   0.27043568 -7.7125974e-13 2.3245688e-13     57.10648     57.10648   -98.001374   -98.001374 -1.2113344e-14   -1486647.8            0     13511190 
       0.223      223    4143.0751   0.26951412 -6.6399009e-13 -3.0258443e-13     57.10648     57.10648   -98.001922   -98.001922 -1.8547951e-14   -1486647.8            0     13511190 
       0.224      224    4143.0751   0.26859895 -5.8095555e-13 1.0040088e-13     57.10648     57.10648   -98.002466   -98.002466 5.8134618e-14   -1486647.8            0     13511190 
       0.225      225    4143.0751   0.26768323 -6.3450749e-13 6.5499126e-13     57.10648     57.10648   -98.003013   -98.003013   6.3875e-14   -1486647.8            0     13511190 
       0.226      226    4143.0751   0.26675423 -8.8096173e-13 3.4411119e-13     57.10648     57.10648   -98.003568   -98.003568 5.7726482e-14   -1486647.8            0     13511190 
       0.227      227    4143.0751    0.2658309 -8.8286058e-13 4.2364636e-13     57.10648     57.10648   -98.004118   -98.004118 1.8875703e-13   -1486647.8            0     13511190 
       0.228      228    4143.0751   0.26492611 -9.2538875e-13 7.0178316e-13     57.10648     57.10648   -98.004655   -98.004655 2.3334423e-13   -1486647.8            0     13511190 
       0.229      229    4143.0751   0.26400381 -9.2952792e-13 7.9099461e-13     57.10648     57.10648   -98.005204   -98.005204 1.877422e-13   -1486647.8            0     13511190 
        0.23      230    4143.0751   0.26307582 -6.4878366e-13 3.9602082e-13     57.10648     57.10648   -98.005758   -98.005758 1.6715718e-13   -1486647.8            0     13511190 
       0.231      231    4143.0751   0.26216213 -4.3689457e-14 7.3880421e-14     57.10648     57.10648   -98.006304   -98.006304 1.8955255e-13   -1486647.8            0     13511190 
       0.232      232    4143.0751   0.26122628 7.6155792e-14 3.3313242e-13     57.10648     57.10648   -98.006861   -98.006861 4.3632441e-13   -1486647.8            0     13511190 
       0.233      233    4143.0751   0.26031548 -2.4234158e-13 2.511478e-13     57.10648     57.10648   -98.007402   -98.007402 1.7537141e-13   -1486647.8            0     13511190 
       0.234      234    4143.0751   0.25940208 -3.089261e-13 2.9079327e-14     57.10648     57.10648   -98.007947   -98.007947 -4.7921429e-14   -1486647.8            0     13511190 
       0.235      235    4143.0751   0.25845841 -1.3379938e-13 -1.8585202e-13     57.10648     57.10648    -98.00851    -98.00851 8.9494933e-14   -1486647.8            0     13511190 
       0.236      236    4143.0751   0.25754203 -1.4188905e-13 -2.5046978e-13     57.10648     57.10648   -98.009057   -98.009057 -3.7902605e-14   -1486647.8            0     13511190 
       0.237      237    4143.0751   0.25661997 -7.701518e-14 -3.675102e-13     57.10648     57.10648   -98.009606   -98.009606 8.7353194e-14   -1486647.8            0     13511190 
       0.238      238    4143.0751   0.25569109 -4.3179894e-14 -2.8794666e-13     57.10648     57.10648   -98.010158   -98.010158 -1.7821546e-13   -1486647.8            0     13511190 
       0.239      239    4143.0751   0.25477046 8.8145134e-15 -2.7159489e-13     57.10648     57.10648   -98.010707   -98.010707 -6.8365305e-14   -1486647.8            0     13511190 
        0.24      240    4143.0751   0.25384045 -5.9272871e-13 3.2233948e-15     57.10648     57.10648   -98.011262   -98.011262 -2.0659215e-14   -1486647.8            0     13511190 
       0.241      241    4143.0751   0.25290457 -3.9032594e-13 -2.575702e-13     57.10648     57.10648    -98.01182    -98.01182 -1.4979047e-13   -1486647.8            0     13511190 
       0.242      242    4143.0751   0.25198644 -1.7536854e-13 -4.0784389e-13     57.10648     57.10648   -98.012366   -98.012366 1.1699459e-13   -1486647.8            0     13511190 
       0.243      243    4143.0751   0.25106641 -1.6346503e-13 -1.5322455e-13     57.10648     57.10648   -98.012913   -98.012913 1.6565408e-15   -1486647.8            0     13511190 
       0.244      244    4143.0751   0.25012253 -2.2863685e-13 -9.667275e-15     57.10648     57.10648   -98.013476   -98.013476 -3.5267148e-14   -1486647.8            0     13511190 
       0.245      245    4143.0751    0.2491995 -1.680874e-13 -7.1865117e-14     57.10648     57.10648   -98.014028   -98.014028 1.2420923e-13   -1486647.8            0     13511190 
       0.246      246    4143.0751   0.24826668 -5.0399965e-13 -3.3296825e-13     57.10648     57.10648   -98.014584   -98.014584 1.0381694e-13   -1486647.8            0     13511190 
       0.247      247    4143.0751   0.24733321 -5.4291501e-13 -5.7402545e-14     57.10648     57.10648   -98.015139   -98.015139 1.2898244e-13   -1486647.8            0     13511190 
       0.248      248    4143.0751   0.24641942 -1.551749e-13 2.0083794e-13     57.10648     57.10648   -98.015682   -98.015682 3.8649097e-14   -1486647.8            0     13511190 
       0.249      249    4143.0751   0.24547394 -1.7753926e-13 -1.8096169e-13     57.10648     57.10648   -98.016247   -98.016247 1.613006e-13   -1486647.8            0     13511190 
        0.25      250    4143.0751   0.24453986 -4.9524908e-13 -9.5816772e-14     57.10648     57.10648   -98.016804   -98.016804 6.0980676e-14   -1486647.8            0     13511190 
       0.251      251    4143.0751   0.24361688 -4.2239841e-13 2.4803638e-13     57.10648     57.10648   -98.017354   -98.017354 4.7583992e-14   -1486647.8            0     13511190 
       0.252      252    4143.0751   0.24267864 1.3740658e-13 5.7694186e-13     57.10648     57.10648   -98.017912   -98.017912 4.7717789e-14   -1486647.8            0     13511190 
       0.253      253    4143.0751   0.24174879 -1.4598183e-13 4.365118e-13     57.10648     57.10648   -98.018466   -98.018466 -8.0560828e-15   -1486647.8            0     13511190 
       0.254      254    4143.0751    0.2408181 -6.894955e-13 1.1342378e-13     57.10648     57.10648   -98.019021   -98.019021 -1.2526159e-13   -1486647.8            0     13511190 
       0.255      255    4143.0751   0.23987669 -5.1354315e-13 2.0520649e-13     57.10648     57.10648   -98.019583   -98.019583 4.5209139e-14   -1486647.8            0     13511190 
       0.256      256    4143.0751   0.23894505 -5.805113e-13 3.3321867e-13     57.10648     57.10648   -98.020138   -98.020138 1.3353366e-13   -1486647.8            0     13511190 
       0.257      257    4143.0751   0.23802469 -6.2766089e-13 1.2553081e-13     57.10648     57.10648   -98.020685   -98.020685 1.6132848e-14   -1486647.8            0     13511190 
       0.258      258    4143.0751   0.23707711  -2.1193e-13 1.0048382e-13     57.10648     57.10648   -98.021249   -98.021249 -6.1677714e-14   -1486647.8            0     13511190 
       0.259      259    4143.0751    0.2361373 -1.7309156e-13 -1.0902009e-13     57.10648     57.10648   -98.021811   -98.021811 5.755162e-14   -1486647.8            0     13511190 
        0.26      260    4143.0751   0.23520635 -8.6357975e-14 -2.2195425e-13     57.10648     57.10648   -98.022366   -98.022366 1.074586e-13   -1486647.8            0     13511190 
       0.261      261    4143.0751   0.23425649 2.4822424e-13 1.7595857e-13     57.10648     57.10648   -98.022931   -98.022931 8.0622331e-14   -1486647.8            0     13511190 
       0.262      262    4143.0751   0.23333308 -8.8013861e-16 2.3481761e-13     57.10648     57.10648    -98.02348    -98.02348 1.0012777e-13   -1486647.8            0     13511190 
       0.263      263    4143.0751   0.23239345 -4.030097e-13 2.1147014e-13     57.10648     57.10648    -98.02404    -98.02404 1.448756e-13   -1486647.8            0     13511190 
       0.264      264    4143.0751   0.23143994 -5.9822768e-13 -1.6312172e-13     57.10648     57.10648    -98.02461    -98.02461 1.065224e-14   -1486647.8            0     13511190 
       0.265      265    4143.0751   0.23051072 -6.4377152e-13 2.0181398e-13     57.10648     57.10648   -98.025164   -98.025164 8.1278312e-14   -1486647.8            0     13511190 
       0.266      266    4143.0751     0.229569 -3.8522562e-13 6.4306436e-13     57.10648     57.10648   -98.025724   -98.025724 1.1357914e-13   -1486647.8            0     13511190 
       0.267      267    4143.0751   0.22862485 -2.5531179e-13 6.0132928e-13     57.10648     57.10648   -98.026286   -98.026286 1.2541932e-14   -1486647.8            0     13511190 
       0.268      268    4143.0751   0.22768599 -3.0225282e-13 6.4826023e-13     57.10648     57.10648   -98.026846   -98.026846 -5.8352667e-15   -1486647.8            0     13511190 
       0.269      269    4143.0751    0.2267395 -6.080139e-13 4.4225251e-13     57.10648     57.10648   -98.027411   -98.027411 4.9761757e-14   -1486647.8            0     13511190 
        0.27      270    4143.0751   0.22579095 -8.3720642e-13 1.629952e-13     57.10648     57.10648   -98.027976   -98.027976 8.2540172e-15   -1486647.8            0     13511190 
       0.271      271    4143.0751   0.22486012 -1.0506571e-12 2.0047298e-13     57.10648     57.10648    -98.02853    -98.02853 -1.7638283e-14   -1486647.8            0     13511190 
       0.272      272    4143.0751    0.2239163 -5.4209763e-13 6.248772e-13     57.10648     57.10648   -98.029091   -98.029091 1.3943973e-13   -1486647.8            0     13511190 
       0.273      273    4143.0751   0.22296137 -5.6160484e-13 6.1801278e-13     57.10648     57.10648   -98.029661   -98.029661 2.6212851e-14   -1486647.8            0     13511190 
       0.274      274    4143.0751   0.22202846 -8.9302867e-14 2.6070332e-13     57.10648     57.10648   -98.030218   -98.030218 -3.8998022e-14   -1486647.8            0     13511190 
       0.275      275    4143.0751     0.221074 -2.7082686e-13 5.1086277e-13     57.10648     57.10648   -98.030786   -98.030786 -6.0998302e-14   -1486647.8            0     13511190 
       0.276      276    4143.0751   0.22012969 -3.9461277e-13 8.9648808e-13     57.10648     57.10648   -98.031348   -98.031348 -4.3351168e-14   -1486647.8            0     13511190 
       0.277      277    4143.0751   0.21919447 -1.5913862e-13 1.1812055e-12     57.10648     57.10648   -98.031905   -98.031905 -1.3597525e-13   -1486647.8            0     13511190 
       0.278      278    4143.0751   0.21823128 -3.2534143e-13 1.0860193e-12     57.10648     57.10648    -98.03248    -98.03248 1.1371318e-13   -1486647.8            0     13511190 
       0.279      279    4143.0751   0.21728535 -8.2284603e-13 8.3805026e-13     57.10648     57.10648   -98.033044   -98.033044 1.3606925e-13   -1486647.8            0     13511190 
        0.28      280    4143.0751   0.21634104 -9.2433975e-13 4.7557359e-13     57.10648     57.10648   -98.033606   -98.033606 -7.0781773e-14   -1486647.8            0     13511190 
       0.281      281    4143.0751   0.21538918 -9.0361774e-13 3.3697645e-13     57.10648     57.10648   -98.034173   -98.034173 1.3438152e-13   -1486647.8            0     13511190 
       0.282      282    4143.0751   0.21444456 -6.3181684e-13 3.2442152e-13     57.10648     57.10648   -98.034735   -98.034735 1.4796477e-13   -1486647.8            0     13511190 
       0.283      283    4143.0751   0.21349394 -9.5089471e-13 7.4520076e-14     57.10648     57.10648   -98.035303   -98.035303 4.2686068e-14   -1486647.8            0     13511190 
       0.284      284    4143.0751   0.21253346 -9.5622061e-13 1.0831004e-13     57.10648     57.10648   -98.035876   -98.035876 1.467427e-13   -1486647.8            0     13511190 
       0.285      285    4143.0751   0.21158674 -9.7219836e-13 -1.8277315e-13     57.10648     57.10648   -98.036439   -98.036439 1.9632394e-13   -1486647.8            0     13511190 
       0.286      286    4143.0751   0.21064519 -8.7937393e-13 -4.3443758e-13     57.10648     57.10648   -98.036999   -98.036999 -3.0532879e-15   -1486647.8            0     13511190 
       0.287      287    4143.0751   0.20967926 -1.0827213e-12 -1.322503e-13     57.10648     57.10648   -98.037575   -98.037575 -4.1894689e-14   -1486647.8            0     13511190 
       0.288      288    4143.0751   0.20873032 -9.6077018e-13  5.80903e-13     57.10648     57.10648   -98.038142   -98.038142 1.5449214e-13   -1486647.8            0     13511190 
       0.289      289    4143.0751   0.20777811 -9.198186e-13 3.3576023e-13     57.10648     57.10648   -98.038709   -98.038709 5.2030876e-14   -1486647.8            0     13511190 
        0.29      290    4143.0751    0.2068183 -8.801566e-13 -2.2047528e-13     57.10648     57.10648    -98.03928    -98.03928 5.8724185e-14   -1486647.8            0     13511190 
       0.291      291    4143.0751   0.20588153 -1.4787728e-12 1.4475947e-13     57.10648     57.10648   -98.039838   -98.039838 4.4835902e-14   -1486647.8            0     13511190 
       0.292      292    4143.0751   0.20491793 -2.0640701e-12 2.2463983e-13     57.10648     57.10648   -98.040412   -98.040412 5.9988224e-15   -1486647.8            0     13511190 
       0.293      293    4143.0751   0.20395305 -1.5303708e-12 3.7799267e-14     57.10648     57.10648   -98.040988   -98.040988 -9.3274672e-14   -1486647.8            0     13511190 
       0.294      294    4143.0751   0.20300548 -8.48056e-13 1.5154764e-13     57.10648     57.10648   -98.041553   -98.041553 -2.9784964e-14   -1486647.8            0     13511190 
       0.295      295    4143.0751    0.2020492 -8.0699799e-13 4.7059246e-13     57.10648     57.10648   -98.042122   -98.042122 -9.2601728e-14   -1486647.8            0     13511190 
       0.296      296    4143.0751   0.20109491 -1.2540058e-12 3.8128573e-14     57.10648     57.10648    -98.04269    -98.04269 -6.6505461e-14   -1486647.8            0     13511190 
       0.297      297    4143.0751   0.20013853 -1.4321832e-12 2.9844802e-13     57.10648     57.10648   -98.043261   -98.043261 1.0441693e-13   -1486647.8            0     13511190 
       0.298      298    4143.0751    0.1991723 -1.2762797e-12 7.6504733e-13     57.10648     57.10648   -98.043837   -98.043837 -6.5794369e-14   -1486647.8            0     13511190 
       0.299      299    4143.0751   0.19820949 -1.1080976e-12 5.7258936e-13     57.10648     57.10648   -98.044411   -98.044411 1.409289e-13   -1486647.8            0     13511190 
         0.3      300    4143.0751   0.19726352 -1.1020796e-12 -1.765772e-13     57.10648     57.10648   -98.044973   -98.044973 2.6942588e-14   -1486647.8            0     13511190 
       0.301      301    4143.0751   0.19629965 -9.3709835e-13 -5.4267861e-13     57.10648     57.10648   -98.045547   -98.045547 2.1094476e-13   -1486647.8            0     13511190 
       0.302      302    4143.0751   0.19533547 -1.2709247e-12 -2.4322441e-13     57.10648     57.10648   -98.046123   -98.046123 1.2842721e-13   -1486647.8            0     13511190 
       0.303      303    4143.0751   0.19438281 -1.0711792e-12 -1.7786414e-13     57.10648     57.10648   -98.046691   -98.046691 1.0093583e-13   -1486647.8            0     13511190 
       0.304      304    4143.0751   0.19341279 -1.226624e-12 2.567953e-13     57.10648     57.10648   -98.047268   -98.047268 5.6411036e-15   -1486647.8            0     13511190 
       0.305      305    4143.0751   0.19246351 -1.6799349e-12 6.2241696e-13     57.10648     57.10648   -98.047833   -98.047833 -4.2046707e-14   -1486647.8            0     13511190 
       0.306      306    4143.0751   0.19150499 -1.6353598e-12 4.7362845e-13     57.10648     57.10648   -98.048404   -98.048404 1.6106691e-13   -1486647.8            0     13511190 
       0.307      307    4143.0751    0.1905279 -1.1772977e-12 2.6987098e-13     57.10648     57.10648   -98.048988   -98.048988 1.4702643e-13   -1486647.8            0     13511190 
       0.308      308    4143.0751   0.18957101 -1.1505875e-12 5.7182484e-13     57.10648     57.10648   -98.049558   -98.049558 6.9931249e-14   -1486647.8            0     13511190 
       0.309      309    4143.0751   0.18860804 -1.26831e-12 6.0910314e-13     57.10648     57.10648   -98.050131   -98.050131 8.6954793e-14   -1486647.8            0     13511190 
        0.31      310    4143.0751   0.18764249 -1.8583523e-12 2.5415706e-13     57.10648     57.10648   -98.050706   -98.050706 1.2007863e-13   -1486647.8            0     13511190 
       0.311      311    4143.0751   0.18668143 -1.8822456e-12 4.6662714e-13     57.10648     57.10648   -98.051279   -98.051279 -9.2576255e-14   -1486647.8            0     13511190 
       0.312      312    4143.0751   0.18571426 -1.9559591e-12 5.2140031e-13     57.10648     57.10648   -98.051856   -98.051856 4.2952953e-14   -1486647.8            0     13511190 
       0.313      313    4143.0751   0.18474203 -1.966856e-12 8.9472703e-13     57.10648     57.10648   -98.052436   -98.052436 -1.3208699e-13   -1486647.8            0     13511190 
       0.314      314    4143.0751   0.18378519 -2.074732e-12 6.3801423e-13     57.10648     57.10648   -98.053005   -98.053005 8.7677113e-14   -1486647.8            0     13511190 
       0.315      315    4143.0751    0.1828253 -2.2445533e-12 3.3732295e-13     57.10648     57.10648   -98.053576   -98.053576 5.2628112e-14   -1486647.8            0     13511190 
       0.316      316    4143.0751   0.18184998 -2.4870656e-12 6.1305942e-13     57.10648     57.10648   -98.054158   -98.054158 3.8514799e-15   -1486647.8            0     13511190 
       0.317      317    4143.0751   0.18088868 -2.3983054e-12 1.0714431e-12     57.10648     57.10648   -98.054732   -98.054732 1.0505662e-13   -1486647.8            0     13511190 
       0.318      318    4143.0751   0.17991422 -2.4461893e-12 1.254566e-12     57.10648     57.10648   -98.055312   -98.055312 1.524243e-13   -1486647.8            0     13511190 
       0.319      319    4143.0751    0.1789477 -2.385374e-12 1.0500009e-12     57.10648     57.10648   -98.055887   -98.055887 4.4341946e-14   -1486647.8            0     13511190 
        0.32      320    4143.0751   0.17799106 -2.348823e-12 9.8445343e-13     57.10648     57.10648   -98.056457   -98.056457 -2.6502629e-14   -1486647.8            0     13511190 
       0.321      321    4143.0751   0.17700963 -2.0147826e-12 1.090411e-12     57.10648     57.10648   -98.057042   -98.057042 7.3756069e-14   -1486647.8            0     13511190 
       0.322      322    4143.0751   0.17604261 -1.7239583e-12 1.0821988e-12     57.10648     57.10648   -98.057619   -98.057619 1.361479e-13   -1486647.8            0     13511190 
       0.323      323    4143.0751    0.1750781 -1.927281e-12 7.0218518e-13     57.10648     57.10648   -98.058194   -98.058194 -7.2900967e-15   -1486647.8            0     13511190 
       0.324      324    4143.0751   0.17410562 -1.7662459e-12 8.0517985e-13     57.10648     57.10648   -98.058772   -98.058772 -6.4091399e-14   -1486647.8            0     13511190 
       0.325      325    4143.0751    0.1731394 -1.8954469e-12 9.613233e-13     57.10648     57.10648   -98.059348   -98.059348 -1.238185e-14   -1486647.8            0     13511190 
       0.326      326    4143.0751   0.17216784 -2.1129785e-12 1.0925281e-12     57.10648     57.10648   -98.059928   -98.059928 -9.7924802e-14   -1486647.8            0     13511190 
       0.327      327    4143.0751   0.17119063 -1.8980674e-12 1.175247e-12     57.10648     57.10648    -98.06051    -98.06051 -6.9245379e-14   -1486647.8            0     13511190 
       0.328      328    4143.0751   0.17022305 -1.7600714e-12 8.3048631e-13     57.10648     57.10648   -98.061086   -98.061086 1.4793964e-13   -1486647.8            0     13511190 
       0.329      329    4143.0751   0.16925944 -1.8666153e-12  4.33713e-13     57.10648     57.10648    -98.06166    -98.06166 5.475367e-14   -1486647.8            0     13511190 
        0.33      330    4143.0751    0.1682772 -2.2444212e-12 7.9042815e-14     57.10648     57.10648   -98.062245   -98.062245 -1.430232e-13   -1486647.8            0     13511190 
       0.331      331    4143.0751    0.1673075 -2.1804765e-12 7.4690443e-13     57.10648     57.10648   -98.062824   -98.062824 -8.0121269e-14   -1486647.8            0     13511190 
       0.332      332    4143.0751   0.16633612 -1.8356425e-12 1.285862e-12     57.10648     57.10648   -98.063403   -98.063403 7.1381493e-14   -1486647.8            0     13511190 
       0.333      333    4143.0751   0.16535586 -1.6931337e-12 1.0028016e-12     57.10648     57.10648   -98.063986   -98.063986 5.9549557e-14   -1486647.8            0     13511190 
       0.334      334    4143.0751   0.16439473 -1.6636224e-12 5.2494878e-13     57.10648     57.10648   -98.064558   -98.064558 5.4448469e-14   -1486647.8            0     13511190 
       0.335      335    4143.0751   0.16341266 -1.3055939e-12 6.888937e-13     57.10648     57.10648   -98.065144   -98.065144 1.6025361e-13   -1486647.8            0     13511190 
       0.336      336    4143.0751   0.16243199 -1.4593584e-12  1.09265e-12     57.10648     57.10648   -98.065729   -98.065729 1.2315984e-13   -1486647.8            0     13511190 
       0.337      337    4143.0751   0.16146696 -1.3780145e-12 1.1649066e-12     57.10648     57.10648   -98.066304   -98.066304 8.581063e-14   -1486647.8            0     13511190 
       0.338      338    4143.0751   0.16049018 -1.5361077e-12 8.3431506e-13     57.10648     57.10648   -98.066885   -98.066885 1.0779329e-14   -1486647.8            0     13511190 
       0.339      339    4143.0751   0.15951776 -1.81295e-12 8.5843842e-13     57.10648     57.10648   -98.067464   -98.067464 1.2316451e-13   -1486647.8            0     13511190 
        0.34      340    4143.0751   0.15854262 -1.4497492e-12 8.1229683e-13     57.10648     57.10648   -98.068046   -98.068046 5.8814306e-14   -1486647.8            0     13511190 
       0.341      341    4143.0751   0.15755859 -1.1601751e-12 1.296279e-12     57.10648     57.10648   -98.068633   -98.068633 1.1257288e-13   -1486647.8            0     13511190 
       0.342      342    4143.0751   0.15658017 -1.3948993e-12 1.1052736e-12     57.10648     57.10648   -98.069216   -98.069216 1.2402955e-13   -1486647.8            0     13511190 
       0.343      343    4143.0751    0.1556139 -2.0443129e-12 1.0387277e-12     57.10648     57.10648   -98.069791   -98.069791 6.1309252e-14   -1486647.8            0     13511190 
       0.344      344    4143.0751   0.15463285 -2.0951064e-12 8.6546853e-13     57.10648     57.10648   -98.070375   -98.070375 -2.3764399e-14   -1486647.8            0     13511190 
       0.345      345    4143.0751   0.15365032 -1.6621905e-12 1.1057891e-12     57.10648     57.10648   -98.070961   -98.070961 5.5158701e-14   -1486647.8            0     13511190 
       0.346      346    4143.0751   0.15267893 -1.3724669e-12 1.0775693e-12     57.10648     57.10648   -98.071541   -98.071541 -3.2247717e-14   -1486647.8            0     13511190 
       0.347      347    4143.0751   0.15169487 -1.1897643e-12 1.6719034e-12     57.10648     57.10648   -98.072127   -98.072127 -1.8426896e-13   -1486647.8            0     13511190 
       0.348      348    4143.0751    0.1507321 -9.5084132e-13 1.7689147e-12     57.10648     57.10648     -98.0727     -98.0727 8.1840426e-14   -1486647.8            0     13511190 
       0.349      349    4143.0751   0.14977624 -1.1509547e-12 1.6781334e-12     57.10648     57.10648   -98.073269   -98.073269 7.5290135e-14   -1486647.8            0     13511190 
        0.35      350    4143.0751   0.14883696 -1.2115587e-12 1.6770539e-12     57.10648     57.10648    -98.07383    -98.07383 1.9824081e-14   -1486647.8            0     13511190 
       0.351      351    4143.0751   0.14797264 -1.4580871e-12 1.397801e-12     57.10648     57.10648   -98.074345   -98.074345 1.0469734e-13   -1486647.8            0     13511190 
       0.352      352    4143.0751   0.14719844 -1.1328896e-12 1.3308697e-12     57.10648     57.10648   -98.074806   -98.074806 -1.3248595e-13   -1486647.8            0     13511190 
       0.353      353    4143.0751   0.14656936 -9.6141377e-13 1.6673102e-12     57.10648     57.10648    -98.07518    -98.07518 9.9090239e-14   -1486647.8            0     13511190 
       0.354      354    4143.0751   0.14611004 -6.7910702e-13 1.8899262e-12     57.10648     57.10648   -98.075454   -98.075454 1.5851909e-13   -1486647.8            0     13511190 
       0.355      355    4143.0751   0.14580074 -7.2274354e-13 1.7542478e-12     57.10648     57.10648   -98.075639   -98.075639 -2.6412209e-14   -1486647.8            0     13511190 
       0.356      356    4143.0751   0.14560655 -6.0149672e-13 1.817501e-12     57.10648     57.10648   -98.075755   -98.075755 -7.9532822e-14   -1486647.8            0     13511190 
       0.357      357    4143.0751   0.14547514 -8.0811703e-13 1.8502323e-12     57.10648     57.10648   -98.075833   -98.075833 -2.240329e-14   -1486647.8            0     13511190 
       0.358      358    4143.0751   0.14535388 -5.9253036e-13 1.7794841e-12     57.10648     57.10648   -98.075905   -98.075905 1.4365764e-13   -1486647.8            0     13511190 
       0.359      359    4143.0751   0.14517606 -7.0363983e-13 1.6318296e-12     57.10648     57.10648   -98.076011   -98.076011 6.3964304e-14   -1486647.8            0     13511190 
        0.36      360    4143.0751   0.14478721 -8.8306304e-13 1.2578234e-12     57.10648     57.10648   -98.076243   -98.076243 -1.2075656e-13   -1486647.8            0     13511190 
       0.361      361    4143.0751   0.14360877 -1.6919232e-12 1.4324266e-12     57.10648     57.10648   -98.076946   -98.076946 -2.8644934e-13   -1486647.8            0     13511190 
       0.362      362    4143.0751   0.13945215 -2.9264906e-12 -2.2916124e-13     57.10648     57.10648   -98.079421   -98.079421 -4.4706203e-13   -1486647.8            0     13511190 
       0.363      363    4143.0751   0.12471178 -8.2199469e-12 -2.0612497e-12     57.10648     57.10648   -98.088201   -98.088201 -1.048529e-12   -1486647.8            0     13511190 
       0.364      364    4143.0751  0.083183139 -2.0137368e-11 -5.3826912e-12     57.10648     57.10648   -98.112947   -98.112947 -3.8439652e-12   -1486647.8            0     13511190 
       0.365      365    4143.0751  0.031393344 -2.6359584e-11 -2.5825675e-11     57.10648     57.10648   -98.143812   -98.143812 -9.6911247e-13   -1486647.8            0     13511190 
       0.366      366    4143.0751 0.0072074484 -2.7068425e-11 -3.1705088e-11     57.10648     57.10648   -98.158224   -98.158224 4.2618741e-13   -1486647.8            0     13511190 
       0.367      367    4143.0751 0.0013391119 -2.7188754e-11 -3.1980593e-11     57.10648     57.10648   -98.161719   -98.161719 4.3460904e-14   -1486647.8            0     13511190 
       0.368      368    4143.0751 0.00027256407 -2.7083615e-11 -3.0858724e-11     57.10648     57.10648   -98.162353   -98.162353 -1.8766355e-14   -1486647.8            0     13511190 
       0.369      369    4143.0751 8.4943408e-05 -2.6882957e-11 -2.9861356e-11     57.10648     57.10648   -98.162465   -98.162465 9.1805665e-14   -1486647.8            0     13511190 
        0.37      370    4143.0751 4.8068928e-05 -2.7184215e-11 -2.9041049e-11     57.10648     57.10648   -98.162487   -98.162487 3.0095395e-14   -1486647.8            0     13511190 
Loop time of 32.5479 on 64 procs for 370 steps with 360800 atoms

90.8% CPU use with 64 MPI tasks x 1 OpenMP threads

Minimization stats:
  Stopping criterion = energy tolerance
  Energy initial, next-to-last, final = 
     -1486645.77951318  -1486647.82549176  -1486647.82549176
  Force two-norm initial, final = 7.1080974 2.0295692e-05
  Force max component initial, final = 0.19826945 2.4123396e-07
  Final line search alpha, max atom move = 1.0000000 2.4123396e-07
  Iterations, force evaluations = 370 740

MPI task timing breakdown:
Section |  min time  |  avg time  |  max time  |%varavg| %total
---------------------------------------------------------------
Pair    | 2.3571     | 7.2148     | 15.762     | 204.2 | 22.17
Neigh   | 0          | 0          | 0          |   0.0 |  0.00
Comm    | 0.029384   | 2.6933     | 8.2196     | 224.6 |  8.27
Output  | 2.4786     | 2.544      | 2.5905     |   1.5 |  7.82
Modify  | 0          | 0          | 0          |   0.0 |  0.00
Other   |            | 20.1       |            |       | 61.74

Nlocal:        5637.50 ave       18400 max           0 min
Histogram: 44 0 0 0 0 0 0 0 1 19
Nghost:        5643.81 ave       18428 max           0 min
Histogram: 43 1 0 0 0 0 0 1 1 18
Neighs:         0.00000 ave           0 max           0 min
Histogram: 64 0 0 0 0 0 0 0 0 0
FullNghs:      944975.0 ave  3.0912e+06 max           0 min
Histogram: 44 0 0 0 0 0 0 0 1 19

Total # of neighbors = 60478400
Ave neighs/atom = 167.62306
Neighbor list builds = 0
Dangerous builds = 0
WARNING: Using 'neigh_modify every 1 delay 0 check yes' setting during minimization (../min.cpp:188)
Setting up cg/kk style minimization ...
  Unit style    : metal
  Current step  : 370
Per MPI rank memory allocation (min/avg/max) = 2.376 | 4.652 | 10.04 Mbytes
Time Step Lx Pxx Pxy Pxz Ly Lz Pyy Pzz Pyz TotEng Temp Volume 
        0.37      370    4143.0751 4.8068928e-05 -2.7163567e-11 -2.9027311e-11     57.10648     57.10648   -98.162487   -98.162487 5.2318803e-15   -1486647.8            0     13511190 
       0.371      371    4143.0751 4.7940339e-05 -2.6966804e-11 -2.8551094e-11     57.10648     57.10648   -98.162487   -98.162487 3.9127852e-14   -1486647.8            0     13511190 
Loop time of 0.127525 on 64 procs for 1 steps with 360800 atoms

90.3% CPU use with 64 MPI tasks x 1 OpenMP threads

Minimization stats:
  Stopping criterion = energy tolerance
  Energy initial, next-to-last, final = 
     -1486647.82549176  -1486647.82549176  -1486647.82549176
  Force two-norm initial, final = 2.0295692e-05 1.5980095e-05
  Force max component initial, final = 2.4123396e-07 2.1094621e-07
  Final line search alpha, max atom move = 1.0000000 2.1094621e-07
  Iterations, force evaluations = 1 2

MPI task timing breakdown:
Section |  min time  |  avg time  |  max time  |%varavg| %total
---------------------------------------------------------------
Pair    | 0.0090595  | 0.028587   | 0.064427   |  13.0 | 22.42
Neigh   | 0          | 0          | 0          |   0.0 |  0.00
Comm    | 0.00011867 | 0.011325   | 0.038795   |  14.6 |  8.88
Output  | 0          | 0          | 0          |   0.0 |  0.00
Modify  | 0          | 0          | 0          |   0.0 |  0.00
Other   |            | 0.08761    |            |       | 68.70

Nlocal:        5637.50 ave       18400 max           0 min
Histogram: 44 0 0 0 0 0 0 0 1 19
Nghost:        5643.81 ave       18428 max           0 min
Histogram: 43 1 0 0 0 0 0 1 1 18
Neighs:         0.00000 ave           0 max           0 min
Histogram: 64 0 0 0 0 0 0 0 0 0
FullNghs:      944975.0 ave  3.0912e+06 max           0 min
Histogram: 44 0 0 0 0 0 0 0 1 19

Total # of neighbors = 60478400
Ave neighs/atom = 167.62306
Neighbor list builds = 0
Dangerous builds = 0
Setting up Verlet run ...
  Unit style    : metal
  Current step  : 371
  Time step     : 0.001
4143.075124 57.10648 4.79403391734041e-05 1.28588956483276e-07 0 0 0
Per MPI rank memory allocation (min/avg/max) = 1.949 | 3.584 | 7.528 Mbytes
Time Step Lx Pxx Pxy Pxz Ly Lz Pyy Pzz Pyz TotEng Temp Volume 
           0      371    4143.0751 4.7940339e-05 -2.6994637e-11 -2.8577102e-11     57.10648     57.10648   -98.162487   -98.162487 -2.1916549e-14   -1486647.8            0     13511190 
4143.075124 57.10648 4.79403250139458e-05 1.28603115941564e-07 0 0.001 4.72572928370065e-16
       0.001      372    4143.4894 4.7935531e-05 -2.6844889e-11 -2.8403519e-11     57.10648     57.10648   -98.152672   -98.152672 -7.7033665e-14   -1486647.8 4.7257293e-16     13512541 
Loop time of 0.0677334 on 64 procs for 1 steps with 360800 atoms

Performance: 1.276 ns/day, 18.815 hours/ns, 14.764 timesteps/s
82.8% CPU use with 64 MPI tasks x 1 OpenMP threads

MPI task timing breakdown:
Section |  min time  |  avg time  |  max time  |%varavg| %total
---------------------------------------------------------------
Pair    | 0.0050201  | 0.010408   | 0.023425   |   7.0 | 15.37
Neigh   | 0          | 0          | 0          |   0.0 |  0.00
Comm    | 2.7343e-05 | 0.0074293  | 0.023739   |  11.9 | 10.97
Output  | 0.0070713  | 0.008592   | 0.0092689  |   0.8 | 12.68
Modify  | 0.0099059  | 0.032846   | 0.044899   |   8.2 | 48.49
Other   |            | 0.008458   |            |       | 12.49

Nlocal:        5637.50 ave       18400 max           0 min
Histogram: 44 0 0 0 0 0 0 0 1 19
Nghost:        5643.81 ave       18428 max           0 min
Histogram: 43 1 0 0 0 0 0 1 1 18
Neighs:         0.00000 ave           0 max           0 min
Histogram: 64 0 0 0 0 0 0 0 0 0
FullNghs:      944975.0 ave  3.0912e+06 max           0 min
Histogram: 44 0 0 0 0 0 0 0 1 19

Total # of neighbors = 60478400
Ave neighs/atom = 167.62306
Neighbor list builds = 0
Dangerous builds = 0
4143.4894315124 57.10648 4.79355314607998e-05 1.33396669087646e-07 9.99950003332973e-05 0.001 4.72572928370065e-16
run 1 end
WARNING: Using 'neigh_modify every 1 delay 0 check yes' setting during minimization (../min.cpp:188)
Setting up cg/kk style minimization ...
  Unit style    : metal
  Current step  : 372
Per MPI rank memory allocation (min/avg/max) = 2.376 | 4.652 | 10.04 Mbytes
Time Step Lx Pxx Pxy Pxz Ly Lz Pyy Pzz Pyz TotEng Temp Volume 
       0.001      372    4143.4894   -75.533273 -2.6685669e-11 -2.8493869e-11     57.10648     57.10648   -143.17507   -143.17507 -1.4507768e-14   -1486647.8 4.7257293e-16     13512541 
       0.002      373    4143.4894   -75.278259 -2.6227916e-11 -2.6630079e-11     57.10648     57.10648   -142.98926   -142.98926 1.3362667e-13   -1486647.8 4.7257293e-16     13512541 
       0.003      374    4143.4894   -75.019718 -2.6965123e-11 -2.3154811e-11     57.10648     57.10648   -142.84338   -142.84338 6.7251251e-13   -1486647.8 4.7257293e-16     13512541 
       0.004      375    4143.4894   -74.764237 -5.3120054e-11 -1.5076615e-11     57.10648     57.10648   -142.68724   -142.68724 9.4453455e-12   -1486647.8 4.7257293e-16     13512541 
       0.005      376    4143.4894   -74.511874 -3.8167363e-10 4.2931017e-11     57.10648     57.10648   -142.53904   -142.53904  1.13912e-10   -1486647.8 4.7257293e-16     13512541 
       0.006      377    4143.4894   -74.263771 -3.8120711e-09 6.6561483e-10     57.10648     57.10648   -142.39047   -142.39047 1.2243048e-09   -1486647.8 4.7257293e-16     13512541 
       0.007      378    4143.4894   -74.028878 -3.0382583e-08 5.9825682e-09     57.10648     57.10648   -142.25016   -142.25016 1.0072607e-08   -1486647.8 4.7257293e-16     13512541 
       0.008      379    4143.4894   -73.833623 -8.159535e-08 1.7937506e-08     57.10648     57.10648   -142.13472   -142.13472 2.8024678e-08   -1486647.8 4.7257293e-16     13512541 
       0.009      380    4143.4894   -73.634512 -3.2707289e-08 8.9624864e-09     57.10648     57.10648   -142.01603   -142.01603 1.2264766e-08   -1486647.8 4.7257293e-16     13512541 
        0.01      381    4143.4894   -73.400946 -1.0426175e-08 3.8166189e-09     57.10648     57.10648   -141.87581   -141.87581 4.8245362e-09   -1486647.8 4.7257293e-16     13512541 
       0.011      382    4143.4894   -73.168468 -1.7627262e-08 3.2797661e-09     57.10648     57.10648   -141.73883   -141.73883 7.8107706e-09   -1486647.8 4.7257293e-16     13512541 
       0.012      383    4143.4894   -72.968884 -3.4708797e-08 2.814598e-09     57.10648     57.10648   -141.61923   -141.61923 1.3774413e-08   -1486647.8 4.7257293e-16     13512541 
       0.013      384    4143.4894   -72.765254 -1.7603871e-08 4.007496e-10     57.10648     57.10648   -141.49715   -141.49715 6.2376935e-09   -1486647.8 4.7257293e-16     13512541 
       0.014      385    4143.4894   -72.532526 -1.3000869e-08 -4.2186618e-09     57.10648     57.10648   -141.36004   -141.36004 3.0883216e-09   -1486647.8 4.7257293e-16     13512541 
       0.015      386    4143.4894   -72.315826 -2.642519e-08 -1.9103095e-08     57.10648     57.10648   -141.22997   -141.22998 3.8663528e-09   -1486647.8 4.7257293e-16     13512541 
       0.016      387    4143.4894   -72.121487 -2.116232e-08 -1.7672224e-08     57.10648     57.10648   -141.11384   -141.11384 3.067526e-09   -1486647.8 4.7257293e-16     13512541 
       0.017      388    4143.4894   -71.896763 -1.2704813e-08 -7.9432539e-09     57.10648     57.10648   -140.98123   -140.98123 2.6801961e-09   -1486647.8 4.7257293e-16     13512541 
       0.018      389    4143.4894   -71.673999 -2.621175e-08 -8.3986231e-09     57.10648     57.10648   -140.84762   -140.84762 5.3192633e-09   -1486647.8 4.7257293e-16     13512541 
       0.019      390    4143.4894   -71.477891 -3.0928427e-08 -3.7446451e-09     57.10648     57.10648    -140.7306    -140.7306 5.0124546e-09   -1486647.8 4.7257293e-16     13512541 
        0.02      391    4143.4894   -71.259003 -1.8745867e-08 -4.7794606e-10     57.10648     57.10648    -140.6012    -140.6012 2.543581e-09   -1486647.8 4.7257293e-16     13512541 
       0.021      392    4143.4894   -71.034588 -2.8100886e-08 -7.2148564e-09     57.10648     57.10648   -140.46678   -140.46678 4.8105626e-09   -1486647.8 4.7257293e-16     13512541 
       0.022      393    4143.4894   -70.835424 -3.5039424e-08 -8.2093773e-09     57.10648     57.10648   -140.34799   -140.34799 6.4020226e-09   -1486647.8 4.7257293e-16     13512541 
       0.023      394    4143.4894   -70.620517 -2.5939126e-08 3.3563803e-09     57.10648     57.10648   -140.22073   -140.22073 3.2716567e-09   -1486647.8 4.7257293e-16     13512541 
       0.024      395    4143.4894   -70.396843 -4.3679496e-08 8.7495371e-09     57.10648     57.10648   -140.08698   -140.08698 3.5152644e-09   -1486647.8 4.7257293e-16     13512541 
[...]
       0.135     5300    4148.8792   -49.532131 3.1885982e-09 9.4020822e-09     57.10648     57.10648   -127.53072   -127.53072 1.9392545e-09   -1486647.8 4.3520542e-14     13530118 
       0.136     5301    4148.8792   -49.320994 2.5474802e-09 5.1087245e-09     57.10648     57.10648   -127.40488   -127.40488 2.3990817e-09   -1486647.8 4.3520542e-14     13530118 
       0.137     5302    4148.8792   -49.111074 -2.162332e-09 4.4275553e-09     57.10648     57.10648   -127.28008   -127.28008 2.6412617e-09   -1486647.8 4.3520542e-14     13530118 
       0.138     5303    4148.8792   -48.897564 -6.4958199e-09 7.0556668e-09     57.10648     57.10648   -127.15277   -127.15277 5.5798339e-09   -1486647.8 4.3520542e-14     13530118 
       0.139     5304    4148.8792   -48.687755 -4.9799062e-09 8.5631179e-09     57.10648     57.10648   -127.02765   -127.02765 6.7291633e-09   -1486647.8 4.3520542e-14     13530118 
        0.14     5305    4148.8792    -48.47658 -2.8225763e-09 8.3460994e-09     57.10648     57.10648   -126.90209   -126.90209 5.6414898e-09   -1486647.8 4.3520542e-14     13530118 
       0.141     5306    4148.8792   -48.262857 -6.1364082e-09 3.3204065e-09     57.10648     57.10648   -126.77473   -126.77473 6.4615171e-09   -1486647.8 4.3520542e-14     13530118 
       0.142     5307    4148.8792   -48.053475 -9.0836708e-09 -2.5533407e-09     57.10648     57.10648   -126.64982   -126.64982 5.4705539e-09   -1486647.8 4.3520542e-14     13530118 
       0.143     5308    4148.8792   -47.842207 -1.0008113e-08 -1.4628706e-10     57.10648     57.10648   -126.52416   -126.52416 2.3610156e-09   -1486647.8 4.3520542e-14     13530118 
       0.144     5309    4148.8792   -47.629478 -1.5919632e-08 3.1440954e-09     57.10648     57.10648   -126.39748   -126.39748 1.1057379e-09   -1486647.8 4.3520542e-14     13530118 
       0.145     5310    4148.8792   -47.419092 -1.7209727e-08 3.0141362e-09     57.10648     57.10648   -126.27193   -126.27193 -2.6035167e-10   -1486647.8 4.3520542e-14     13530118 
       0.146     5311    4148.8792    -47.20637 -7.188005e-09 1.1697896e-09     57.10648     57.10648   -126.14535   -126.14535 -2.9566569e-09   -1486647.8 4.3520542e-14     13530118 
       0.147     5312    4148.8792   -46.994902 -5.5171526e-11 -7.9132809e-09     57.10648     57.10648    -126.0195    -126.0195 -6.2650627e-09   -1486647.8 4.3520542e-14     13530118 
       0.148     5313    4148.8792   -46.784888 9.2995451e-10 -1.9204863e-08     57.10648     57.10648   -125.89417   -125.89417 -8.3477978e-09   -1486647.8 4.3520542e-14     13530118 
       0.149     5314    4148.8792   -46.571939 2.6949046e-09 -1.8318721e-08     57.10648     57.10648   -125.76739   -125.76739 -8.7150214e-09   -1486647.8 4.3520542e-14     13530118 
        0.15     5315    4148.8792    -46.36143 -2.441493e-10 -7.4643786e-09     57.10648     57.10648   -125.64216   -125.64216 -9.636735e-09   -1486647.8 4.3520542e-14     13530118 
       0.151     5316    4148.8792   -46.151047 -4.7178105e-09 -1.2816461e-09     57.10648     57.10648   -125.51664   -125.51664 -9.9091898e-09   -1486647.8 4.3520542e-14     13530118 
       0.152     5317    4148.8792   -45.936985 -4.8458939e-09 -4.0280946e-09     57.10648     57.10648   -125.38911   -125.38911 -8.3251582e-09   -1486647.8 4.3520542e-14     13530118 
       0.153     5318    4148.8792   -45.725861 -8.5881523e-09 -4.0518983e-09     57.10648     57.10648   -125.26356   -125.26356 -7.3166592e-09   -1486647.8 4.3520542e-14     13530118 
       0.154     5319    4148.8792   -45.515925 -7.4616088e-09 3.5452561e-09     57.10648     57.10648   -125.13835   -125.13835 -7.2823416e-09   -1486647.8 4.3520542e-14     13530118 
       0.155     5320    4148.8792   -45.303067 -1.0912641e-09 6.8789928e-09     57.10648     57.10648   -125.01146   -125.01146 -5.6058347e-09   -1486647.8 4.3520542e-14     13530118 
       0.156     5321    4148.8792   -45.091939 -9.3013051e-09 7.9613929e-10     57.10648     57.10648   -124.88593   -124.88593 -3.7480959e-09   -1486647.8 4.3520542e-14     13530118 
       0.157     5322    4148.8792   -44.881953 -1.642472e-08 -3.463409e-09     57.10648     57.10648   -124.76074   -124.76074 -2.9266564e-09   -1486647.8 4.3520542e-14     13530118 
       0.158     5323    4148.8792   -44.670041 -4.7893004e-09 1.5098641e-09     57.10648     57.10648   -124.63435   -124.63435 -3.3112685e-10   -1486647.8 4.3520542e-14     13530118 
       0.159     5324    4148.8792   -44.458115 1.8451931e-09 7.9798621e-09     57.10648     57.10648   -124.50835   -124.50835 1.5108571e-09   -1486647.8 4.3520542e-14     13530118 
        0.16     5325    4148.8792   -44.246677 2.5061907e-09 9.9333768e-09     57.10648     57.10648   -124.38236   -124.38236 2.1332127e-10   -1486647.8 4.3520542e-14     13530118 
       0.161     5326    4148.8792   -44.035217 1.0222376e-08 6.6626036e-09     57.10648     57.10648   -124.25619   -124.25619 1.0016871e-09   -1486647.8 4.3520542e-14     13530118 
       0.162     5327    4148.8792   -43.823811 9.0712056e-09 1.1524214e-09     57.10648     57.10648   -124.13046   -124.13046 3.2969648e-09   -1486647.8 4.3520542e-14     13530118 
       0.163     5328    4148.8792   -43.611781 3.6639581e-10 2.7327636e-09     57.10648     57.10648    -124.0042    -124.0042 1.7244214e-09   -1486647.8 4.3520542e-14     13530118 
       0.164     5329    4148.8792   -43.400365 -1.1976944e-09 9.4877048e-09     57.10648     57.10648   -123.87802   -123.87802 -1.4794476e-09   -1486647.8 4.3520542e-14     13530118 
       0.165     5330    4148.8792    -43.19041 -1.829151e-09 7.0253202e-09     57.10648     57.10648   -123.75311   -123.75311 -3.5222064e-09   -1486647.8 4.3520542e-14     13530118 
       0.166     5331    4148.8792   -42.978574 -1.3315333e-09 3.5340092e-10     57.10648     57.10648   -123.62704   -123.62704 -6.008912e-09   -1486647.8 4.3520542e-14     13530118 
       0.167     5332    4148.8792   -42.765516 -1.1714199e-09 -5.0668833e-10     57.10648     57.10648   -123.49986   -123.49986 -9.2765511e-09   -1486647.8 4.3520542e-14     13530118 
       0.168     5333    4148.8792   -42.555439 -8.6651954e-09 -3.4029969e-09     57.10648     57.10648   -123.37482   -123.37482 -1.2152192e-08   -1486647.8 4.3520542e-14     13530118 
       0.169     5334    4148.8792   -42.344985 -7.8941647e-09 -6.5426501e-09     57.10648     57.10648   -123.24964   -123.24964 -1.4244774e-08   -1486647.8 4.3520542e-14     13530118 
        0.17     5335    4148.8792   -42.132162 -1.7122072e-10 -4.0726539e-09     57.10648     57.10648   -123.12261   -123.12261 -1.7095836e-08   -1486647.8 4.3520542e-14     13530118 
       0.171     5336    4148.8792   -41.921407 -2.4854752e-09 -5.8445824e-09     57.10648     57.10648    -122.9971    -122.9971 -1.9501328e-08   -1486647.8 4.3520542e-14     13530118 
       0.172     5337    4148.8792   -41.710871 -3.2695532e-09 -1.0206064e-08     57.10648     57.10648   -122.87191   -122.87191 -1.8532121e-08   -1486647.8 4.3520542e-14     13530118 
       0.173     5338    4148.8792   -41.498989 -1.2070092e-09 -6.5265118e-09     57.10648     57.10648   -122.74548   -122.74549 -1.6991207e-08   -1486647.8 4.3520542e-14     13530118 
       0.174     5339    4148.8792   -41.287789 -8.2355612e-09 -2.6620852e-09     57.10648     57.10648   -122.61962   -122.61962 -1.7206469e-08   -1486647.8 4.3520542e-14     13530118 
       0.175     5340    4148.8792   -41.075118 -9.1613508e-09 -2.2202789e-09     57.10648     57.10648   -122.49319   -122.49319 -1.8643007e-08   -1486647.8 4.3520542e-14     13530118 
       0.176     5341    4148.8792   -40.863392 -4.2422086e-09 1.8926276e-09     57.10648     57.10648   -122.36691   -122.36691 -2.0232755e-08   -1486647.8 4.3520542e-14     13530118 
       0.177     5342    4148.8792   -40.653955 -6.4836885e-09 -2.8132975e-10     57.10648     57.10648   -122.24203   -122.24203 -1.8950585e-08   -1486647.8 4.3520542e-14     13530118 
       0.178     5343    4148.8792   -40.441715 -4.6449927e-09 -1.1825168e-08     57.10648     57.10648   -122.11586   -122.11586 -1.655781e-08   -1486647.8 4.3520542e-14     13530118 
       0.179     5344    4148.8792   -40.230046 -2.5691117e-09 -1.5541921e-08     57.10648     57.10648   -121.98968   -121.98968 -1.5372958e-08   -1486647.8 4.3520542e-14     13530118 
        0.18     5345    4148.8792    -40.01998 -7.5211046e-09 -8.6735242e-09     57.10648     57.10648   -121.86437   -121.86437 -1.2115192e-08   -1486647.8 4.3520542e-14     13530118 
       0.181     5346    4148.8792   -39.807301 -4.3459198e-09 -3.6129571e-09     57.10648     57.10648   -121.73791   -121.73792 -8.3717271e-09   -1486647.8 4.3520542e-14     13530118 
       0.182     5347    4148.8792   -39.596365 -1.3051467e-09 -5.8868167e-10     57.10648     57.10648   -121.61224   -121.61224 -7.1263967e-09   -1486647.8 4.3520542e-14     13530118 
       0.183     5348    4148.8792   -39.386023 -4.8773689e-09 -1.5869435e-09     57.10648     57.10648   -121.48673   -121.48673 -4.9768179e-09   -1486647.8 4.3520542e-14     13530118 
       0.184     5349    4148.8792   -39.172847 2.0721795e-09 -4.4078945e-09     57.10648     57.10648   -121.35994   -121.35994 -2.0440548e-10   -1486647.8 4.3520542e-14     13530118 
       0.185     5350    4148.8792   -38.961767 6.6241067e-09 2.7933939e-09     57.10648     57.10648   -121.23425   -121.23426 2.4800046e-09   -1486647.8 4.3520542e-14     13530118 
       0.186     5351    4148.8792   -38.750961 -1.0575456e-09 9.9312749e-09     57.10648     57.10648   -121.10845   -121.10845 2.140619e-09   -1486647.8 4.3520542e-14     13530118 
       0.187     5352    4148.8792   -38.539172 6.9180483e-10 4.7461201e-09     57.10648     57.10648   -120.98243   -120.98243 4.1670465e-09   -1486647.8 4.3520542e-14     13530118 
       0.188     5353    4148.8792   -38.328926 2.6355526e-09 3.3258714e-09     57.10648     57.10648    -120.8573   -120.85731 5.8623429e-09   -1486647.8 4.3520542e-14     13530118 
       0.189     5354    4148.8792   -38.115788 -5.4073038e-09 8.3014668e-09     57.10648     57.10648   -120.73011   -120.73011 4.5734065e-09   -1486647.8 4.3520542e-14     13530118 
        0.19     5355    4148.8792   -37.902972 -9.6407041e-09  5.49042e-09     57.10648     57.10648   -120.60341   -120.60341 5.2800048e-09   -1486647.8 4.3520542e-14     13530118 
       0.191     5356    4148.8792   -37.693682 -1.4280043e-08 1.8982762e-09     57.10648     57.10648   -120.47891   -120.47891 5.9087862e-09   -1486647.8 4.3520542e-14     13530118 
       0.192     5357    4148.8792   -37.481078 -1.8964473e-08 8.2477357e-09     57.10648     57.10648   -120.35206   -120.35206 2.4739972e-09   -1486647.8 4.3520542e-14     13530118 
       0.193     5358    4148.8792   -37.268331 -1.5785869e-08 1.4275585e-08     57.10648     57.10648   -120.22533   -120.22533 -1.1276099e-09   -1486647.8 4.3520542e-14     13530118 
       0.194     5359    4148.8792   -37.057735 -1.4359355e-08 1.0874101e-08     57.10648     57.10648   -120.10008   -120.10008 -2.4004951e-09   -1486647.8 4.3520542e-14     13530118 
       0.195     5360    4148.8792   -36.845007 -1.5501398e-08 4.2285313e-09     57.10648     57.10648    -119.9732    -119.9732 -3.6116145e-09   -1486647.8 4.3520542e-14     13530118 
       0.196     5361    4148.8792   -36.634297 -1.1900326e-08 2.8486937e-09     57.10648     57.10648   -119.84761   -119.84761 -6.2610941e-09   -1486647.8 4.3520542e-14     13530118 
       0.197     5362    4148.8792     -36.4241 -1.1217018e-08 3.113721e-09     57.10648     57.10648   -119.72261   -119.72261 -8.2358493e-09   -1486647.8 4.3520542e-14     13530118 
       0.198     5363    4148.8792   -36.211356 -1.230191e-08 -1.919949e-09     57.10648     57.10648   -119.59578   -119.59578 -9.0736219e-09   -1486647.8 4.3520542e-14     13530118 
       0.199     5364    4148.8792    -35.99991 -1.0643677e-08 -4.5179107e-09     57.10648     57.10648    -119.4697    -119.4697 -9.1157417e-09   -1486647.8 4.3520542e-14     13530118 
         0.2     5365    4148.8792   -35.788539 -9.0590938e-09 1.1235838e-09     57.10648     57.10648   -119.34399   -119.34399 -8.214634e-09   -1486647.8 4.3520542e-14     13530118 
       0.201     5366    4148.8792   -35.577105 -7.0843714e-09 7.4328862e-09     57.10648     57.10648   -119.21801   -119.21801 -7.7593631e-09   -1486647.8 4.3520542e-14     13530118 
       0.202     5367    4148.8792   -35.366873 -9.1638431e-09 1.2965759e-08     57.10648     57.10648    -119.0926    -119.0926 -6.6460723e-09   -1486647.8 4.3520542e-14     13530118 
       0.203     5368    4148.8792   -35.154324 -1.2460364e-08 1.7173787e-08     57.10648     57.10648   -118.96617   -118.96617 -3.8602817e-09   -1486647.8 4.3520542e-14     13530118 
       0.204     5369    4148.8792   -34.942818 -1.1192606e-08 1.9183215e-08     57.10648     57.10648    -118.8402    -118.8402 -2.2201653e-09   -1486647.8 4.3520542e-14     13530118 
       0.205     5370    4148.8792    -34.73301 -1.3620037e-08 2.0415611e-08     57.10648     57.10648   -118.71503   -118.71503 -2.3584735e-09   -1486647.8 4.3520542e-14     13530118 
       0.206     5371    4148.8792    -34.52039 -1.5471902e-08 1.7408325e-08     57.10648     57.10648    -118.5885    -118.5885 2.8426049e-10   -1486647.8 4.3520542e-14     13530118 
       0.207     5372    4148.8792   -34.308942 -1.2178753e-08 1.1470208e-08     57.10648     57.10648   -118.46264   -118.46264 4.3479676e-09   -1486647.8 4.3520542e-14     13530118 
       0.208     5373    4148.8792   -34.098249 -1.4774675e-08 1.2003741e-08     57.10648     57.10648   -118.33693   -118.33693 4.0677907e-09   -1486647.8 4.3520542e-14     13530118 
       0.209     5374    4148.8792   -33.885461 -1.3378015e-08 1.2254578e-08     57.10648     57.10648   -118.21025   -118.21025 4.1518815e-09   -1486647.8 4.3520542e-14     13530118 
        0.21     5375    4148.8792   -33.674604 -2.5373643e-09 6.4419001e-09     57.10648     57.10648   -118.08478   -118.08478 7.418863e-09   -1486647.8 4.3520542e-14     13530118 
       0.211     5376    4148.8792   -33.463687  -2.4586e-09 6.6548811e-09     57.10648     57.10648   -117.95896   -117.95896 6.9827142e-09   -1486647.8 4.3520542e-14     13530118 
       0.212     5377    4148.8792   -33.251484 -5.1833992e-09 8.0205737e-09     57.10648     57.10648   -117.83256   -117.83256 4.9097941e-09   -1486647.8 4.3520542e-14     13530118 
       0.213     5378    4148.8792    -33.04088 -1.2196435e-10 3.2825665e-09     57.10648     57.10648   -117.70728   -117.70728 5.8130596e-09   -1486647.8 4.3520542e-14     13530118 
       0.214     5379    4148.8792   -32.828804 -8.1279423e-10 3.0860159e-09     57.10648     57.10648    -117.5808    -117.5808 5.364118e-09   -1486647.8 4.3520542e-14     13530118 
       0.215     5380    4148.8792    -32.61682 -1.7205535e-09 -1.5781286e-10     57.10648     57.10648   -117.45447   -117.45447 2.2721726e-09   -1486647.8 4.3520542e-14     13530118 
       0.216     5381    4148.8792   -32.407165 -1.275529e-09 -1.1465514e-08     57.10648     57.10648   -117.32978   -117.32978 -7.4874617e-11   -1486647.8 4.3520542e-14     13530118 
       0.217     5382    4148.8792    -32.19523 -9.7013675e-09 -9.5092983e-09     57.10648     57.10648   -117.20343   -117.20343 -1.2546269e-09   -1486647.8 4.3520542e-14     13530118 
       0.218     5383    4148.8792   -31.983064 -1.2952228e-08 -1.8987761e-09     57.10648     57.10648   -117.07693   -117.07693 -2.1178163e-09   -1486647.8 4.3520542e-14     13530118 
       0.219     5384    4148.8792   -31.772549 -9.2692317e-09 -7.5006917e-09     57.10648     57.10648   -116.95172   -116.95172 -2.7315322e-09   -1486647.8 4.3520542e-14     13530118 
        0.22     5385    4148.8792   -31.560611 -1.4825171e-08 -1.1474975e-08     57.10648     57.10648   -116.82543   -116.82544 -4.1255014e-09   -1486647.8 4.3520542e-14     13530118 
       0.221     5386    4148.8792   -31.349368 -1.7845991e-08 -4.9250228e-09     57.10648     57.10648   -116.69944   -116.69944 -4.7557312e-09   -1486647.8 4.3520542e-14     13530118 
       0.222     5387    4148.8792   -31.138357 -1.2972085e-08 -2.6075767e-10     57.10648     57.10648   -116.57391   -116.57391 -3.5125621e-09   -1486647.8 4.3520542e-14     13530118 
       0.223     5388    4148.8792   -30.925499 -1.3948695e-08 1.8134843e-09     57.10648     57.10648   -116.44714   -116.44714 -3.4844961e-09   -1486647.8 4.3520542e-14     13530118 
       0.224     5389    4148.8792   -30.714336 -1.063002e-08 1.3932769e-09     57.10648     57.10648   -116.32116   -116.32116 -4.2265162e-09   -1486647.8 4.3520542e-14     13530118 
       0.225     5390    4148.8792   -30.503774 1.9373637e-10 -4.9690156e-09     57.10648     57.10648   -116.19586   -116.19586 -3.086535e-09   -1486647.8 4.3520542e-14     13530118 
       0.226     5391    4148.8792   -30.291534 2.2244703e-09 -8.1758511e-09     57.10648     57.10648   -116.06953   -116.06953 -2.0951544e-09   -1486647.8 4.3520542e-14     13530118 
       0.227     5392    4148.8792    -30.08085 -3.708233e-10 -7.6064447e-09     57.10648     57.10648   -115.94382   -115.94382 -2.0478371e-09   -1486647.8 4.3520542e-14     13530118 
       0.228     5393    4148.8792   -29.869856 -1.1247209e-09 -6.3531192e-09     57.10648     57.10648   -115.81821   -115.81821 -4.7390544e-10   -1486647.8 4.3520542e-14     13530118 
       0.229     5394    4148.8792   -29.656804 -3.1517931e-09 2.3217698e-09     57.10648     57.10648   -115.69144   -115.69144 2.4432543e-09   -1486647.8 4.3520542e-14     13530118 
        0.23     5395    4148.8792   -29.445989 -4.7641725e-09 1.2550997e-08     57.10648     57.10648   -115.56566   -115.56566 4.9496383e-09   -1486647.8 4.3520542e-14     13530118 
       0.231     5396    4148.8792   -29.235087 -5.5207611e-09 1.0072774e-08     57.10648     57.10648   -115.44005   -115.44005 6.3023695e-09   -1486647.8 4.3520542e-14     13530118 
       0.232     5397    4148.8792   -29.021277 -3.4885449e-09 4.5013277e-09     57.10648     57.10648   -115.31288   -115.31288 7.7391373e-09   -1486647.8 4.3520542e-14     13530118 
       0.233     5398    4148.8792   -28.810383 2.0837931e-09 5.6625932e-09     57.10648     57.10648   -115.18707   -115.18707 9.9552309e-09   -1486647.8 4.3520542e-14     13530118 
       0.234     5399    4148.8792   -28.601063 8.2894648e-10 9.4644933e-09     57.10648     57.10648   -115.06234   -115.06234 1.1629991e-08   -1486647.8 4.3520542e-14     13530118 
       0.235     5400    4148.8792   -28.387929 -1.4445771e-09 1.1961133e-08     57.10648     57.10648    -114.9356    -114.9356 1.2530095e-08   -1486647.8 4.3520542e-14     13530118 
       0.236     5401    4148.8792   -28.175686 4.7057022e-09 1.0422213e-08     57.10648     57.10648   -114.80903   -114.80903 1.2688008e-08   -1486647.8 4.3520542e-14     13530118 
       0.237     5402    4148.8792   -27.964916 5.3777376e-09 2.9045773e-09     57.10648     57.10648   -114.68337   -114.68337 1.2028052e-08   -1486647.8 4.3520542e-14     13530118 
       0.238     5403    4148.8792    -27.75249 -2.1990115e-09 -2.4362864e-09     57.10648     57.10648   -114.55706   -114.55706 1.1404238e-08   -1486647.8 4.3520542e-14     13530118 
       0.239     5404    4148.8792   -27.541345 -4.5017241e-09 -4.3146666e-10     57.10648     57.10648    -114.4312    -114.4312 9.9294572e-09   -1486647.8 4.3520542e-14     13530118 
        0.24     5405    4148.8792   -27.329665 -3.223759e-09 3.1629387e-09     57.10648     57.10648   -114.30495   -114.30495 9.6328212e-09   -1486647.8 4.3520542e-14     13530118 
       0.241     5406    4148.8792   -27.117161 -5.4750975e-09 -1.6342037e-09     57.10648     57.10648   -114.17858   -114.17858 1.0851192e-08   -1486647.8 4.3520542e-14     13530118 
slurmstepd: error: *** JOB 6507159 ON r228n18 CANCELLED AT 2022-05-03T13:59:45 ***
