LAMMPS (29 Sep 2021 - Update 1)
KOKKOS mode is enabled (../kokkos.cpp:97)
  will use up to 1 GPU(s) per node
  using 1 OpenMP thread(s) per MPI task
package kokkos
#################################
#two psrts have to be corrected
#Vacancy >> type : Fe Fe Fe Fe Fe Fe Fe Fe Fe
#Cu      >> type : Fe Fe Fe Fe Fe Fe Fe Fe Fe Cu
#################################

variable npt_temp      equal 0.1

variable atmos        equal 1.01325                    # Atomic Mass

units       metal
atom_style  atomic
boundary p p p

#timestep .0001
timestep    0.001
#timestep    0.01
#timestep 0.1
read_data   ./Fe.lat
Reading data file ...
  orthogonal box = (0.0000000 0.0000000 0.0000000) to (4143.0751 57.106480 57.106480)
  64 by 1 by 1 MPI processor grid
  reading atoms ...
  360800 atoms
  read_data CPU = 5.034 seconds

pair_style  eam/alloy
pair_coeff  * * ./FeCuNi.eam.alloy Fe Fe Fe Fe Fe Fe Fe Fe Fe
#pair_coeff  * * ./new_potential/FeCuNi.eam.alloy Fe Fe Fe Fe Cu
#mass        *4 ${mass}
#pair_style  aenet
#pair_coeff  * * v03 Fe 10sw-10sw.nn Fe Fe Fe Fe Fe
#pair_coeff  * * ./new_potential/FeCuNi.eam.alloy Fe Fe Fe Fe Cu
#mass        *4 ${mass}
mass        * 55.845
#mass        5 58.454 correct value!!!

#group naming
group source type 2
800 atoms in group source
group detector type 3
800 atoms in group detector
group edge type 5
400 atoms in group edge
group edge_buf type 7
400 atoms in group edge_buf
group buffer type 7 8 9
120000 atoms in group buffer
#group longage type 9

variable s equal xcm(source,x)
variable d equal xcm(detector,x)
variable g equal xcm(edge,x)
variable t equal temp
variable p equal press
variable v equal vol
variable e equal etotal
variable i equal time
variable FIG string iranai
variable f equal fcm(detector,x)
variable l equal vcm(detector,x)

##############################################
variable rescaleSteps equal 0
variable relaxationSteps equal 0
variable initialSteps equal ${rescaleSteps}+${relaxationSteps}
variable initialSteps equal 0+${relaxationSteps}
variable initialSteps equal 0+0
##############################################

#dump fuck all atom 1 strain.dump
#dump_modify fuck scale no

thermo 1
thermo_style custom time step lx pxx pxy pxz ly lz pyy pzz pyz etotal temp vol

#fix extra all print 1 "$i $s $d $g $l $f $t $v $e $p" file outp.txt

fix nve1 all nve
minimize 1.0e-30 1.0e-30 100000 100000
WARNING: Using 'neigh_modify every 1 delay 0 check yes' setting during minimization (../min.cpp:188)
Neighbor list info ...
  update every 1 steps, delay 0 steps, check yes
  max neighbors/atom: 2000, page size: 100000
  master list distance cutoff = 7.6
  ghost atom cutoff = 7.6
  binsize = 7.6, bins = 546 8 8
  1 neighbor lists, perpetual/occasional/extra = 1 0 0
  (1) pair eam/alloy/kk, perpetual
      attributes: full, newton off, kokkos_device
      pair build: full/bin/kk/device
      stencil: full/bin/3d
      bin: kk/device
WARNING: Fixes cannot yet send exchange data in Kokkos communication, switching to classic exchange/border communication (../comm_kokkos.cpp:581)
Per MPI rank memory allocation (min/avg/max) = 2.376 | 4.616 | 9.668 Mbytes
Time Step Lx Pxx Pxy Pxz Ly Lz Pyy Pzz Pyz TotEng Temp Volume 
           0        0    4143.0751    12.766153 -4.9665998e-14 -1.7671202e-14     57.10648     57.10648   -85.456504   -85.456504 -1.321597e-14   -1486645.8            0     13511190 
       0.001        1    4143.0751    4.9624194 -2.5571261e-14 -3.6166283e-14     57.10648     57.10648   -95.172201   -95.172201 -4.8722062e-13   -1486647.7            0     13511190 
       0.002        2    4143.0751    2.7193318 -6.4412267e-14 -2.1225132e-14     57.10648     57.10648   -97.006352   -97.006352 3.7096507e-13   -1486647.7            0     13511190 
       0.003        3    4143.0751    3.2072967 -9.5755231e-14 -8.8085709e-14     57.10648     57.10648   -96.140203   -96.140203 -1.3623829e-13   -1486647.8            0     13511190 
       0.004        4    4143.0751    2.6400573 1.0105151e-13 6.4499888e-14     57.10648     57.10648   -96.501525   -96.501525 3.923676e-13   -1486647.8            0     13511190 
       0.005        5    4143.0751    1.8692697 -2.1201147e-15 8.802706e-14     57.10648     57.10648   -97.038029   -97.038029 1.2461774e-14   -1486647.8            0     13511190 
       0.006        6    4143.0751    1.5880349 2.7531565e-14 -1.7937321e-14     57.10648     57.10648   -97.222835   -97.222835 -5.1648342e-13   -1486647.8            0     13511190 
       0.007        7    4143.0751    1.4304795 -5.9971995e-14 2.1783995e-13     57.10648     57.10648   -97.302236   -97.302236 -1.3605056e-14   -1486647.8            0     13511190 
       0.008        8    4143.0751    1.3102667 1.5763303e-14 1.1422454e-13     57.10648     57.10648   -97.373091   -97.373091 -1.1073486e-13   -1486647.8            0     13511190 
       0.009        9    4143.0751    1.1651506 -6.3312055e-14 -5.5270379e-14     57.10648     57.10648   -97.467596   -97.467596 2.7964603e-13   -1486647.8            0     13511190 
        0.01       10    4143.0751    1.0801049 8.7316038e-15 -5.7188726e-14     57.10648     57.10648   -97.519517   -97.519517 -3.0137229e-16   -1486647.8            0     13511190 
       0.011       11    4143.0751    1.0182961 4.3298874e-14 1.2730011e-13     57.10648     57.10648    -97.55383    -97.55383 -1.122863e-13   -1486647.8            0     13511190 
       0.012       12    4143.0751   0.96492776 -1.9032725e-14 -1.7348551e-14     57.10648     57.10648   -97.585187   -97.585187 4.1613468e-14   -1486647.8            0     13511190 
       0.013       13    4143.0751   0.90630688 1.0123407e-13 -1.2749071e-13     57.10648     57.10648   -97.622306   -97.622306 7.7265176e-14   -1486647.8            0     13511190 
       0.014       14    4143.0751   0.86458184 -2.71438e-14 2.2688703e-15     57.10648     57.10648   -97.647661   -97.647661 1.0302709e-13   -1486647.8            0     13511190 
       0.015       15    4143.0751   0.83242506 -1.0566285e-14 -5.5757807e-14     57.10648     57.10648   -97.665622   -97.665622 9.6518244e-14   -1486647.8            0     13511190 
       0.016       16    4143.0751   0.80214445 1.7057862e-13 6.1043756e-15     57.10648     57.10648   -97.683642   -97.683642 7.1464176e-14   -1486647.8            0     13511190 
       0.017       17    4143.0751   0.77060995 4.3038038e-14 -3.608718e-14     57.10648     57.10648   -97.703317   -97.703317 6.1484792e-14   -1486647.8            0     13511190 
       0.018       18    4143.0751   0.74604836 -1.4132034e-14 -1.5214751e-13     57.10648     57.10648   -97.718075   -97.718075 2.5596858e-14   -1486647.8            0     13511190 
       0.019       19    4143.0751   0.72612731 -9.8436728e-14 -8.8796118e-14     57.10648     57.10648   -97.729394   -97.729394 1.6627076e-13   -1486647.8            0     13511190 
        0.02       20    4143.0751   0.70656473 2.4892792e-15 2.0909612e-13     57.10648     57.10648   -97.741056   -97.741056 -1.10588e-13   -1486647.8            0     13511190 
       0.021       21    4143.0751   0.68688557 -4.9530713e-13 1.3063703e-12     57.10648     57.10648   -97.753242   -97.753242 -3.3445177e-13   -1486647.8            0     13511190 
       0.022       22    4143.0751   0.67069114 -5.785477e-12 1.211851e-11     57.10648     57.10648   -97.762917   -97.762917 -3.6721063e-12   -1486647.8            0     13511190 
       0.023       23    4143.0751   0.65754115 -3.8804197e-11 7.7047341e-11     57.10648     57.10648    -97.77045    -97.77045 -2.2443615e-11   -1486647.8            0     13511190 
       0.024       24    4143.0751   0.64678033 -1.3228307e-10 2.4921136e-10     57.10648     57.10648   -97.776847   -97.776847 -7.1769376e-11   -1486647.8            0     13511190 
       0.025       25    4143.0751   0.63572083 -4.7652036e-11 8.1577227e-11     57.10648     57.10648   -97.783605   -97.783605 -2.2195546e-11   -1486647.8            0     13511190 
       0.026       26    4143.0751   0.62405428 -5.9189814e-12 1.5880016e-11     57.10648     57.10648   -97.790727   -97.790727 -2.5513816e-12   -1486647.8            0     13511190 
       0.027       27    4143.0751     0.613268 3.4758119e-11 2.2314228e-11     57.10648     57.10648   -97.797026   -97.797026 8.3401283e-13   -1486647.8            0     13511190 
       0.028       28    4143.0751   0.60491177 1.610375e-10 7.8309835e-11     57.10648     57.10648   -97.801887   -97.801887 1.8997886e-12   -1486647.8            0     13511190 
       0.029       29    4143.0751   0.59724841 1.353953e-10 7.2369982e-11     57.10648     57.10648   -97.806487   -97.806487 -1.4987459e-12   -1486647.8            0     13511190 
        0.03       30    4143.0751   0.58818834 2.9236292e-11 2.3852003e-11     57.10648     57.10648   -97.812036   -97.812036 -2.3963777e-12   -1486647.8            0     13511190 
       0.031       31    4143.0751   0.57978197 5.3339164e-11 4.1593208e-11     57.10648     57.10648   -97.817069   -97.817069 -2.0737529e-12   -1486647.8            0     13511190 
       0.032       32    4143.0751   0.57306963 1.5471054e-10 9.9254033e-11     57.10648     57.10648   -97.820965   -97.820966 7.4040773e-13   -1486647.8            0     13511190 
       0.033       33    4143.0751   0.56737044 9.8606834e-11 5.7099168e-11     57.10648     57.10648   -97.824311   -97.824311 2.2961005e-12   -1486647.8            0     13511190 
       0.034       34    4143.0751   0.56000494 4.1738814e-11 1.9151457e-11     57.10648     57.10648    -97.82877    -97.82877 1.9794657e-12   -1486647.8            0     13511190 
       0.035       35    4143.0751    0.5533029 8.5707123e-11 2.9490401e-11     57.10648     57.10648   -97.832846   -97.832846 5.4946611e-12   -1486647.8            0     13511190 
       0.036       36    4143.0751   0.54799885 1.4949209e-10 4.1200137e-11     57.10648     57.10648   -97.835985   -97.835985 1.0489218e-11   -1486647.8            0     13511190 
       0.037       37    4143.0751   0.54283151 5.7896225e-11 1.1595184e-11     57.10648     57.10648   -97.838994   -97.838994 4.3619268e-12   -1486647.8            0     13511190 
       0.038       38    4143.0751   0.53717835 5.3828437e-11 1.4049413e-11     57.10648     57.10648   -97.842347   -97.842347 2.8131357e-12   -1486647.8            0     13511190 
       0.039       39    4143.0751   0.53179085 1.0371793e-10 4.314601e-11     57.10648     57.10648   -97.845622   -97.845622 2.3624212e-12   -1486647.8            0     13511190 
        0.04       40    4143.0751   0.52732707 6.9028285e-11 3.6105882e-11     57.10648     57.10648    -97.84832    -97.84832 8.083992e-14   -1486647.8            0     13511190 
       0.041       41    4143.0751   0.52240733 3.1586503e-11 2.0712096e-11     57.10648     57.10648   -97.851218   -97.851218 -4.0939335e-13   -1486647.8            0     13511190 
       0.042       42    4143.0751   0.51800702 4.5418487e-11 2.9771821e-11     57.10648     57.10648   -97.853791   -97.853791 2.1392487e-13   -1486647.8            0     13511190 
       0.043       43    4143.0751   0.51401767 5.1193824e-11 3.2518441e-11     57.10648     57.10648   -97.856178   -97.856178 8.3048284e-13   -1486647.8            0     13511190 
       0.044       44    4143.0751   0.50962431 1.891137e-11 1.5019925e-11     57.10648     57.10648   -97.858845   -97.858845 9.3142171e-13   -1486647.8            0     13511190 
       0.045       45    4143.0751   0.50537029 1.9231038e-11 2.1170066e-11     57.10648     57.10648   -97.861397   -97.861397 3.0270698e-12   -1486647.8            0     13511190 
       0.046       46    4143.0751   0.50180337 2.4103488e-11 2.8174974e-11     57.10648     57.10648   -97.863488   -97.863488 4.9462157e-12   -1486647.8            0     13511190 
       0.047       47    4143.0751   0.49841436 9.7391575e-12 1.144709e-11     57.10648     57.10648   -97.865478   -97.865478 1.6348331e-12   -1486647.8            0     13511190 
       0.048       48    4143.0751   0.49441741 7.4743905e-12 7.114134e-12     57.10648     57.10648   -97.867881   -97.867881 8.1820259e-13   -1486647.8            0     13511190 
       0.049       49    4143.0751   0.49089968 1.2223019e-11 1.0672206e-11     57.10648     57.10648   -97.870011   -97.870011 4.4267034e-13   -1486647.8            0     13511190 
        0.05       50    4143.0751   0.48775925 6.2545756e-12 7.3394187e-12     57.10648     57.10648   -97.871885   -97.871885 -1.8285416e-13   -1486647.8            0     13511190 
       0.051       51    4143.0751   0.48442464 2.1415423e-12 5.3297007e-12     57.10648     57.10648   -97.873839   -97.873839 -1.710413e-13   -1486647.8            0     13511190 
       0.052       52    4143.0751   0.48130194 6.2858347e-12 1.2015962e-11     57.10648     57.10648   -97.875687   -97.875687 -1.0786924e-13   -1486647.8            0     13511190 
       0.053       53    4143.0751   0.47832232 3.6472454e-12 1.0537925e-11     57.10648     57.10648   -97.877483   -97.877483 -5.4150429e-13   -1486647.8            0     13511190 
       0.054       54    4143.0751   0.47523596 -1.2786767e-12 5.327688e-12     57.10648     57.10648   -97.879348   -97.879348 -4.2877225e-13   -1486647.8            0     13511190 
       0.055       55    4143.0751   0.47224898 2.9570324e-13 1.1354743e-11     57.10648     57.10648   -97.881118   -97.881118 1.1591651e-12   -1486647.8            0     13511190 
       0.056       56    4143.0751   0.46974022 2.4779073e-12 1.2347512e-11     57.10648     57.10648    -97.88259    -97.88259 1.6681681e-12   -1486647.8            0     13511190 
       0.057       57    4143.0751   0.46704684 -2.8716961e-14 5.1061601e-12     57.10648     57.10648    -97.88419    -97.88419 1.2277811e-12   -1486647.8            0     13511190 
       0.058       58    4143.0751      0.46412 -1.083862e-12 6.3679289e-12     57.10648     57.10648   -97.885958   -97.885958 2.0828333e-12   -1486647.8            0     13511190 
       0.059       59    4143.0751   0.46164333 -9.9709556e-13 1.3586532e-11     57.10648     57.10648   -97.887446   -97.887446 3.1970042e-12   -1486647.8            0     13511190 
        0.06       60    4143.0751   0.45917157 -2.1643818e-12 1.1746107e-11     57.10648     57.10648   -97.888907   -97.888907 2.0138317e-12   -1486647.8            0     13511190 
       0.061       61    4143.0751   0.45670044 -3.4585971e-12 1.2954708e-11     57.10648     57.10648    -97.89036    -97.89036 2.7939023e-12   -1486647.8            0     13511190 
       0.062       62    4143.0751   0.45435684 -4.1158109e-12 2.1740276e-11     57.10648     57.10648   -97.891762   -97.891762 5.7744437e-12   -1486647.8            0     13511190 
       0.063       63    4143.0751   0.45204697 -3.8662828e-12 1.5486193e-11     57.10648     57.10648   -97.893156   -97.893156 3.457705e-12   -1486647.8            0     13511190 
       0.064       64    4143.0751   0.44965124 -6.5503042e-12 1.5049673e-11     57.10648     57.10648    -97.89459    -97.89459 4.3064511e-12   -1486647.8            0     13511190 
       0.065       65    4143.0751   0.44748291 -1.0594265e-11 2.1762364e-11     57.10648     57.10648   -97.895868   -97.895868 8.2469949e-12   -1486647.8            0     13511190 
       0.066       66    4143.0751   0.44550716 -7.1298486e-12 1.4963298e-11     57.10648     57.10648   -97.897034   -97.897034 6.3270899e-12   -1486647.8            0     13511190 
       0.067       67    4143.0751   0.44323534 -4.9204933e-12 1.0363222e-11     57.10648     57.10648   -97.898395   -97.898395 4.586831e-12   -1486647.8            0     13511190 
       0.068       68    4143.0751   0.44111761 -6.2793163e-12 1.294276e-11     57.10648     57.10648   -97.899672   -97.899672  5.90712e-12   -1486647.8            0     13511190 
       0.069       69    4143.0751   0.43916976 -5.2870925e-12 1.0028687e-11     57.10648     57.10648   -97.900834   -97.900834 4.340644e-12   -1486647.8            0     13511190 
        0.07       70    4143.0751   0.43713397 -3.7550862e-12 6.3714344e-12     57.10648     57.10648   -97.902033   -97.902033 2.2163189e-12   -1486647.8            0     13511190 
       0.071       71    4143.0751   0.43522691 -3.827951e-12 7.5339949e-12     57.10648     57.10648   -97.903163   -97.903163 2.5414962e-12   -1486647.8            0     13511190 
       0.072       72    4143.0751   0.43333276 -2.7921807e-12 5.463693e-12     57.10648     57.10648     -97.9043     -97.9043 1.727598e-12   -1486647.8            0     13511190 
       0.073       73    4143.0751   0.43136152 -1.4318519e-12 3.9880845e-12     57.10648     57.10648   -97.905487   -97.905487 4.4084754e-13   -1486647.8            0     13511190 
       0.074       74    4143.0751   0.42949614 -9.5461076e-13 5.6273414e-12     57.10648     57.10648   -97.906595   -97.906595 2.1500488e-13   -1486647.8            0     13511190 
       0.075       75    4143.0751   0.42780769 -1.4666539e-12 4.1848281e-12     57.10648     57.10648    -97.90759    -97.90759 1.2999757e-13   -1486647.8            0     13511190 
       0.076       76    4143.0751   0.42598808 -1.4852576e-12 3.3467077e-12     57.10648     57.10648   -97.908671   -97.908671 6.8205784e-14   -1486647.8            0     13511190 
       0.077       77    4143.0751   0.42413195 -8.9117889e-13 5.4590697e-12     57.10648     57.10648   -97.909788   -97.909788 4.444996e-13   -1486647.8            0     13511190 
       0.078       78    4143.0751   0.42250089 1.3166845e-13 6.3184483e-12     57.10648     57.10648   -97.910766   -97.910766 4.1344204e-13   -1486647.8            0     13511190 
       0.079       79    4143.0751   0.42078416 2.9083968e-15 4.9859001e-12     57.10648     57.10648   -97.911784   -97.911784 2.8697441e-13   -1486647.8            0     13511190 
        0.08       80    4143.0751    0.4191471 7.1683377e-13 6.5019602e-12     57.10648     57.10648    -97.91275    -97.91275 1.0745379e-12   -1486647.8            0     13511190 
       0.081       81    4143.0751    0.4175843 9.893811e-13 5.996204e-12     57.10648     57.10648   -97.913682   -97.913682 8.3890441e-13   -1486647.8            0     13511190 
       0.082       82    4143.0751   0.41588373 2.5922374e-13 3.6661644e-12     57.10648     57.10648   -97.914705   -97.914705 3.2665873e-13   -1486647.8            0     13511190 
       0.083       83    4143.0751   0.41424211 1.720414e-13 5.2428201e-12     57.10648     57.10648   -97.915687   -97.915687 5.9915344e-13   -1486647.8            0     13511190 
       0.084       84    4143.0751    0.4127513 7.8000201e-13 5.5896334e-12     57.10648     57.10648   -97.916569   -97.916569 8.0180821e-13   -1486647.8            0     13511190 
       0.085       85    4143.0751   0.41125498 1.0114277e-12 3.5989128e-12     57.10648     57.10648   -97.917453   -97.917453 4.9689934e-13   -1486647.8            0     13511190 
       0.086       86    4143.0751   0.40967355 9.0464982e-13 5.3816254e-12     57.10648     57.10648   -97.918399   -97.918399 7.331229e-13   -1486647.8            0     13511190 
       0.087       87    4143.0751   0.40820666 5.9632805e-13 5.4179441e-12     57.10648     57.10648   -97.919281   -97.919281 9.1588824e-13   -1486647.8            0     13511190 
       0.088       88    4143.0751   0.40671694 4.0188411e-13 3.0283713e-12     57.10648     57.10648    -97.92017    -97.92017 9.2115116e-13   -1486647.8            0     13511190 
       0.089       89    4143.0751   0.40524348 6.0697228e-13 3.3873715e-12     57.10648     57.10648   -97.921041   -97.921041 1.2639829e-12   -1486647.8            0     13511190 
        0.09       90    4143.0751   0.40389814 5.1088432e-13 3.7504902e-12     57.10648     57.10648   -97.921838   -97.921838 1.5668981e-12   -1486647.8            0     13511190 
       0.091       91    4143.0751   0.40243052 4.2962828e-13 2.3890638e-12     57.10648     57.10648   -97.922717   -97.922717 9.6085499e-13   -1486647.8            0     13511190 
       0.092       92    4143.0751   0.40098118 1.3139044e-13 2.0877967e-12     57.10648     57.10648   -97.923588   -97.923588 7.641462e-13   -1486647.8            0     13511190 
       0.093       93    4143.0751   0.39964626 1.0996689e-13 1.7779185e-12     57.10648     57.10648   -97.924382   -97.924382 6.0015383e-13   -1486647.8            0     13511190 
       0.094       94    4143.0751   0.39828586 6.508134e-13 1.2884581e-12     57.10648     57.10648   -97.925186   -97.925186 -3.6374671e-14   -1486647.8            0     13511190 
       0.095       95    4143.0751   0.39691982 4.956204e-13 2.6940605e-12     57.10648     57.10648   -97.925997   -97.925997 -3.6584968e-13   -1486647.8            0     13511190 
       0.096       96    4143.0751   0.39559534 1.2729802e-13 3.5552226e-12     57.10648     57.10648   -97.926792   -97.926792 -5.0433516e-13   -1486647.8            0     13511190 
       0.097       97    4143.0751   0.39425946 3.018794e-13 2.506503e-12     57.10648     57.10648   -97.927593   -97.927593 -1.0723406e-13   -1486647.8            0     13511190 
       0.098       98    4143.0751   0.39292261 1.6256091e-14 2.5320135e-12     57.10648     57.10648   -97.928387   -97.928387 -3.1244341e-13   -1486647.8            0     13511190 
       0.099       99    4143.0751   0.39170446 -3.2450682e-13 2.0699881e-12     57.10648     57.10648   -97.929107   -97.929107 -9.3944436e-14   -1486647.8            0     13511190 
         0.1      100    4143.0751   0.39042318 -6.6163941e-14 1.2292625e-12     57.10648     57.10648    -97.92987    -97.92987 3.2068592e-13   -1486647.8            0     13511190 
       0.101      101    4143.0751   0.38909788 -8.5158537e-14 1.1853264e-12     57.10648     57.10648   -97.930665   -97.930665 6.173426e-13   -1486647.8            0     13511190 
       0.102      102    4143.0751   0.38787795 -3.748479e-13 1.1668469e-12     57.10648     57.10648   -97.931396   -97.931396 4.4116409e-13   -1486647.8            0     13511190 
       0.103      103    4143.0751     0.386615 -1.6430474e-13 9.425201e-13     57.10648     57.10648   -97.932145   -97.932145 2.828197e-13   -1486647.8            0     13511190 
       0.104      104    4143.0751   0.38539413 4.3113176e-13 1.8232975e-12     57.10648     57.10648   -97.932867   -97.932867 1.6595249e-13   -1486647.8            0     13511190 
       0.105      105    4143.0751   0.38421565 9.0080289e-13 2.3259512e-12     57.10648     57.10648    -97.93357    -97.93357 -2.1718661e-14   -1486647.8            0     13511190 
       0.106      106    4143.0751   0.38296657 9.1716264e-13 1.1637377e-12     57.10648     57.10648    -97.93432    -97.93432 -5.0325097e-14   -1486647.8            0     13511190 
       0.107      107    4143.0751   0.38173964 1.5413458e-12 1.3640846e-12     57.10648     57.10648   -97.935053   -97.935053 -2.120462e-13   -1486647.8            0     13511190 
       0.108      108    4143.0751   0.38059791 1.8201444e-12 1.1596696e-12     57.10648     57.10648   -97.935729   -97.935729 3.0281694e-14   -1486647.8            0     13511190 
       0.109      109    4143.0751   0.37943776 1.1050471e-12 1.0655394e-12     57.10648     57.10648   -97.936417   -97.936417 -2.9841064e-14   -1486647.8            0     13511190 
        0.11      110    4143.0751   0.37822117 1.4469648e-12 1.9610739e-12     57.10648     57.10648   -97.937144   -97.937144 1.4143197e-13   -1486647.8            0     13511190 
       0.111      111    4143.0751   0.37708214 1.5927583e-12 2.0564352e-12     57.10648     57.10648   -97.937827   -97.937827 1.8294674e-13   -1486647.8            0     13511190 
       0.112      112    4143.0751   0.37592032 1.6087792e-12 1.4966537e-12     57.10648     57.10648    -97.93852    -97.93852 8.1494353e-14   -1486647.8            0     13511190 
       0.113      113    4143.0751   0.37477149 1.9449757e-12 2.1673074e-12     57.10648     57.10648     -97.9392     -97.9392 8.0899603e-14   -1486647.8            0     13511190 
       0.114      114    4143.0751   0.37369518 2.4503008e-12 2.3561585e-12     57.10648     57.10648   -97.939839   -97.939839 -8.2333188e-14   -1486647.8            0     13511190 
       0.115      115    4143.0751    0.3725377 1.9120859e-12 1.5241473e-12     57.10648     57.10648   -97.940532   -97.940532 -1.6156192e-13   -1486647.8            0     13511190 
       0.116      116    4143.0751   0.37140445 2.2056356e-12 1.9978254e-12     57.10648     57.10648   -97.941211   -97.941211 1.1267326e-13   -1486647.8            0     13511190 
       0.117      117    4143.0751   0.37033081 1.9398759e-12 2.1652181e-12     57.10648     57.10648    -97.94185    -97.94185 -1.9977823e-13   -1486647.8            0     13511190 
       0.118      118    4143.0751   0.36922936 1.1482638e-12 1.3797388e-12     57.10648     57.10648   -97.942502   -97.942502 4.4675902e-14   -1486647.8            0     13511190 
       0.119      119    4143.0751   0.36812812 8.8254789e-13 9.3720878e-13     57.10648     57.10648   -97.943157   -97.943157 2.5821528e-13   -1486647.8            0     13511190 
        0.12      120    4143.0751   0.36704378 3.3977915e-13 7.3200716e-13     57.10648     57.10648   -97.943807   -97.943807 3.0228416e-13   -1486647.8            0     13511190 
       0.121      121    4143.0751   0.36594068 3.2737829e-13 7.3810827e-13     57.10648     57.10648   -97.944467   -97.944467 1.5730625e-13   -1486647.8            0     13511190 
       0.122      122    4143.0751   0.36485178 4.5273682e-13 7.3834301e-13     57.10648     57.10648   -97.945113   -97.945113 2.5166175e-13   -1486647.8            0     13511190 
       0.123      123    4143.0751   0.36383622 2.3649951e-13 4.7222916e-13     57.10648     57.10648   -97.945715   -97.945715 4.6424253e-13   -1486647.8            0     13511190 
       0.124      124    4143.0751    0.3627568 1.557266e-13 9.4789471e-13     57.10648     57.10648   -97.946358   -97.946358 3.7154532e-13   -1486647.8            0     13511190 
       0.125      125    4143.0751   0.36166969 3.8308234e-13 1.6571879e-12     57.10648     57.10648    -97.94701    -97.94701 5.1511567e-13   -1486647.8            0     13511190 
       0.126      126    4143.0751    0.3606526 4.9461486e-13 1.2515554e-12     57.10648     57.10648   -97.947618   -97.947618 2.6023099e-13   -1486647.8            0     13511190 
       0.127      127    4143.0751   0.35959791 1.6477648e-13 9.0113745e-13     57.10648     57.10648   -97.948243   -97.948243 -4.9961917e-14   -1486647.8            0     13511190 
       0.128      128    4143.0751   0.35857369 -3.799918e-14 9.9504187e-13     57.10648     57.10648   -97.948851   -97.948851 5.5591449e-14   -1486647.8            0     13511190 
       0.129      129    4143.0751   0.35754796 -4.3462614e-13 7.9106938e-13     57.10648     57.10648   -97.949463   -97.949463 -1.1796355e-13   -1486647.8            0     13511190 
        0.13      130    4143.0751   0.35648624 -9.2968852e-15 5.8451993e-13     57.10648     57.10648   -97.950099   -97.950099 2.2195873e-14   -1486647.8            0     13511190 
       0.131      131    4143.0751   0.35546416 1.7368354e-13 8.6124324e-13     57.10648     57.10648   -97.950709   -97.950709 -1.0353025e-13   -1486647.8            0     13511190 
       0.132      132    4143.0751   0.35446878 1.6713357e-13 5.6268642e-13     57.10648     57.10648   -97.951299   -97.951299 1.9980838e-13   -1486647.8            0     13511190 
       0.133      133    4143.0751   0.35345012 3.3398791e-13 6.5246337e-13     57.10648     57.10648   -97.951904   -97.951904 6.3904856e-14   -1486647.8            0     13511190 
       0.134      134    4143.0751    0.3524261 4.1916541e-13 9.7679876e-13     57.10648     57.10648   -97.952516   -97.952516 1.9600772e-13   -1486647.8            0     13511190 
       0.135      135    4143.0751   0.35143266 6.7308074e-13 7.0623426e-13     57.10648     57.10648   -97.953111   -97.953111 1.8411179e-13   -1486647.8            0     13511190 
       0.136      136    4143.0751   0.35041069 7.3633046e-13 4.2343543e-13     57.10648     57.10648    -97.95372    -97.95372 3.0539882e-13   -1486647.8            0     13511190 
       0.137      137    4143.0751   0.34943226 7.7843224e-13 7.5971251e-13     57.10648     57.10648     -97.9543     -97.9543 5.2766345e-13   -1486647.8            0     13511190 
       0.138      138    4143.0751   0.34846662 3.8074355e-13 6.4893405e-13     57.10648     57.10648   -97.954874   -97.954874 2.3986933e-13   -1486647.8            0     13511190 
       0.139      139    4143.0751   0.34743472  2.32891e-13 4.909827e-13     57.10648     57.10648   -97.955491   -97.955491 2.791731e-14   -1486647.8            0     13511190 
        0.14      140    4143.0751   0.34645701 3.0593767e-13 6.4357348e-13     57.10648     57.10648   -97.956076   -97.956076 2.5248785e-13   -1486647.8            0     13511190 
       0.141      141    4143.0751   0.34548294 5.419805e-13 5.6756184e-13     57.10648     57.10648   -97.956655   -97.956655 -8.8737567e-14   -1486647.8            0     13511190 
       0.142      142    4143.0751   0.34449028 3.6222065e-13 6.3827785e-13     57.10648     57.10648   -97.957244   -97.957244 2.4399993e-14   -1486647.8            0     13511190 
       0.143      143    4143.0751   0.34352907 5.1699561e-13 1.1180639e-12     57.10648     57.10648   -97.957816   -97.957816 1.7791693e-13   -1486647.8            0     13511190 
       0.144      144    4143.0751   0.34255043 4.3580013e-13 9.8964522e-13     57.10648     57.10648   -97.958402   -97.958402 -3.0190608e-14   -1486647.8            0     13511190 
       0.145      145    4143.0751   0.34155661 2.3928405e-13 4.0221605e-13     57.10648     57.10648   -97.958996   -97.958996 -1.3565439e-13   -1486647.8            0     13511190 
       0.146      146    4143.0751    0.3406015 -4.4164033e-14 6.6201185e-13     57.10648     57.10648   -97.959563   -97.959563 -6.3656674e-14   -1486647.8            0     13511190 
       0.147      147    4143.0751   0.33966222 1.7077252e-13 6.770517e-13     57.10648     57.10648   -97.960121   -97.960121 -2.5122263e-14   -1486647.8            0     13511190 
       0.148      148    4143.0751   0.33867694 5.1494827e-13 5.0666821e-13     57.10648     57.10648   -97.960708   -97.960708 -1.3696684e-13   -1486647.8            0     13511190 
       0.149      149    4143.0751   0.33772041 4.0016362e-13 4.1647361e-13     57.10648     57.10648   -97.961281   -97.961281 -1.7804137e-13   -1486647.8            0     13511190 
        0.15      150    4143.0751   0.33676693 2.4670765e-13 6.0789635e-13     57.10648     57.10648    -97.96185    -97.96185 -1.2105189e-13   -1486647.8            0     13511190 
       0.151      151    4143.0751    0.3357905 4.3596973e-13 7.5991224e-13     57.10648     57.10648    -97.96243    -97.96243 7.8762892e-15   -1486647.8            0     13511190 
       0.152      152    4143.0751    0.3348669 3.8393887e-13 8.3705513e-13     57.10648     57.10648   -97.962978   -97.962978 -1.3418295e-13   -1486647.8            0     13511190 
       0.153      153    4143.0751   0.33390519 -6.0767046e-14 8.1226477e-13     57.10648     57.10648   -97.963552   -97.963552 -7.5272094e-14   -1486647.8            0     13511190 
       0.154      154    4143.0751   0.33292872 -2.3025239e-13 9.6360852e-13     57.10648     57.10648   -97.964136   -97.964136 -7.2899903e-14   -1486647.8            0     13511190 
       0.155      155    4143.0751   0.33200425 -1.9097331e-13 8.4547341e-13     57.10648     57.10648   -97.964688   -97.964688 3.2284285e-14   -1486647.8            0     13511190 
       0.156      156    4143.0751   0.33106434 3.5538312e-13 5.0470883e-13     57.10648     57.10648   -97.965245   -97.965245 1.6451939e-13   -1486647.8            0     13511190 
       0.157      157    4143.0751   0.33011368 2.680312e-13 8.9354269e-13     57.10648     57.10648    -97.96581    -97.96581 1.3710908e-13   -1486647.8            0     13511190 
       0.158      158    4143.0751   0.32917698 4.6721324e-13 8.4155627e-13     57.10648     57.10648    -97.96637    -97.96637 2.0988906e-13   -1486647.8            0     13511190 
       0.159      159    4143.0751   0.32823456 3.9401699e-13 4.369386e-13     57.10648     57.10648   -97.966934   -97.966934 1.2268076e-13   -1486647.8            0     13511190 
        0.16      160    4143.0751   0.32728342 5.0883904e-14 5.2780264e-13     57.10648     57.10648     -97.9675     -97.9675 2.391759e-13   -1486647.8            0     13511190 
       0.161      161    4143.0751    0.3263752 1.0664421e-13 8.1099333e-13     57.10648     57.10648   -97.968039   -97.968039 4.842536e-14   -1486647.8            0     13511190 
       0.162      162    4143.0751   0.32544345 1.8806898e-13 4.2545269e-13     57.10648     57.10648   -97.968593   -97.968593 -1.31122e-13   -1486647.8            0     13511190 
       0.163      163    4143.0751   0.32448387 -3.1808304e-13 4.7088931e-13     57.10648     57.10648   -97.969167   -97.969167 -5.5555727e-14   -1486647.8            0     13511190 
       0.164      164    4143.0751   0.32357142 -2.9015746e-13 5.3139461e-13     57.10648     57.10648   -97.969713   -97.969713 -9.7991759e-14   -1486647.8            0     13511190 
       0.165      165    4143.0751    0.3226335 -2.9143243e-14 4.3194856e-13     57.10648     57.10648    -97.97027    -97.97027 1.7783825e-14   -1486647.8            0     13511190 
       0.166      166    4143.0751   0.32170866 2.969957e-13 7.7935522e-13     57.10648     57.10648   -97.970819   -97.970819 -5.2650783e-14   -1486647.8            0     13511190 
       0.167      167    4143.0751   0.32079828 3.7074281e-13 7.1792134e-13     57.10648     57.10648   -97.971362   -97.971362 4.6887029e-15   -1486647.8            0     13511190 
       0.168      168    4143.0751   0.31984732 1.5552386e-13 1.9033674e-13     57.10648     57.10648    -97.97193    -97.97193 -8.5141436e-14   -1486647.8            0     13511190 
       0.169      169    4143.0751    0.3189191 1.1386184e-13 2.1125279e-13     57.10648     57.10648   -97.972485   -97.972485 9.9056321e-15   -1486647.8            0     13511190 
        0.17      170    4143.0751   0.31800939 8.7975846e-14 2.3421895e-13     57.10648     57.10648   -97.973025   -97.973025 -1.3575512e-13   -1486647.8            0     13511190 
       0.171      171    4143.0751   0.31708424 -6.3049597e-14 5.8726128e-13     57.10648     57.10648   -97.973575   -97.973575 4.0453378e-14   -1486647.8            0     13511190 
       0.172      172    4143.0751   0.31615475 -7.0481524e-14 5.9717232e-13     57.10648     57.10648   -97.974129   -97.974129 -1.6559337e-14   -1486647.8            0     13511190 
       0.173      173    4143.0751   0.31524161   3.6426e-13 4.5617383e-13     57.10648     57.10648   -97.974675   -97.974675 1.624018e-13   -1486647.8            0     13511190 
       0.174      174    4143.0751    0.3143084 5.199135e-13 4.8310861e-13     57.10648     57.10648   -97.975232   -97.975232 -5.1536701e-14   -1486647.8            0     13511190 
       0.175      175    4143.0751   0.31338914 7.1930492e-13 5.8021561e-13     57.10648     57.10648   -97.975778   -97.975778 5.5068384e-14   -1486647.8            0     13511190 
       0.176      176    4143.0751   0.31249433 6.9584093e-13 6.7215081e-13     57.10648     57.10648    -97.97631    -97.97631 2.3444297e-14   -1486647.8            0     13511190 
       0.177      177    4143.0751   0.31155428 7.4388952e-13 3.2415211e-13     57.10648     57.10648   -97.976871   -97.976871 2.2325292e-13   -1486647.8            0     13511190 
       0.178      178    4143.0751   0.31063841 1.1071626e-12 3.9036522e-14     57.10648     57.10648   -97.977419   -97.977419 3.8576533e-13   -1486647.8            0     13511190 
       0.179      179    4143.0751   0.30973038 8.0419603e-13 1.1904741e-13     57.10648     57.10648    -97.97796    -97.97796 9.0891191e-14   -1486647.8            0     13511190 
        0.18      180    4143.0751   0.30880375 4.812188e-13 2.1672768e-13     57.10648     57.10648    -97.97851    -97.97851 1.5450473e-13   -1486647.8            0     13511190 
       0.181      181    4143.0751   0.30790693 7.4270662e-13 1.9296049e-13     57.10648     57.10648   -97.979043   -97.979043 1.2528505e-13   -1486647.8            0     13511190 
       0.182      182    4143.0751   0.30698582 7.9977724e-13 2.6290335e-13     57.10648     57.10648   -97.979593   -97.979593 3.1379497e-14   -1486647.8            0     13511190 
       0.183      183    4143.0751    0.3060528 8.1744102e-13 5.9173565e-13     57.10648     57.10648   -97.980151   -97.980151 -9.3004337e-14   -1486647.8            0     13511190 
       0.184      184    4143.0751   0.30514694 8.1429805e-13 6.0480054e-13     57.10648     57.10648    -97.98069    -97.98069 -9.7961755e-14   -1486647.8            0     13511190 
       0.185      185    4143.0751   0.30424296 7.9265167e-13 1.5272148e-13     57.10648     57.10648   -97.981227   -97.981227 -4.0784082e-15   -1486647.8            0     13511190 
       0.186      186    4143.0751   0.30331948 1.0058477e-13 -7.5985369e-16     57.10648     57.10648   -97.981777   -97.981777 -7.2538516e-14   -1486647.8            0     13511190 
       0.187      187    4143.0751   0.30240754 2.3340859e-13 -3.2554334e-14     57.10648     57.10648   -97.982322   -97.982322 9.3607931e-14   -1486647.8            0     13511190 
       0.188      188    4143.0751   0.30149649 4.6349862e-13 6.7687428e-14     57.10648     57.10648   -97.982866   -97.982866 7.8500436e-14   -1486647.8            0     13511190 
       0.189      189    4143.0751   0.30057102 6.4100095e-13 5.6438597e-14     57.10648     57.10648   -97.983417   -97.983417 8.2853921e-14   -1486647.8            0     13511190 
        0.19      190    4143.0751   0.29968294 3.9597063e-13 -1.0310648e-13     57.10648     57.10648   -97.983944   -97.983944 1.4278645e-13   -1486647.8            0     13511190 
       0.191      191    4143.0751   0.29876764 5.6960421e-13 -2.9577818e-13     57.10648     57.10648    -97.98449    -97.98449 1.1633636e-13   -1486647.8            0     13511190 
       0.192      192    4143.0751   0.29783798 5.652463e-13 -3.7240258e-14     57.10648     57.10648   -97.985045   -97.985045 3.8727291e-14   -1486647.8            0     13511190 
       0.193      193    4143.0751    0.2969443 2.8558114e-13 -3.1793705e-14     57.10648     57.10648   -97.985579   -97.985579 1.5941809e-13   -1486647.8            0     13511190 
       0.194      194    4143.0751   0.29602261 -8.2905508e-14 -3.9990634e-13     57.10648     57.10648   -97.986127   -97.986127 6.6396094e-14   -1486647.8            0     13511190 
       0.195      195    4143.0751   0.29511075 1.3173953e-14 -1.8786769e-13     57.10648     57.10648   -97.986668   -97.986668 2.0228492e-13   -1486647.8            0     13511190 
       0.196      196    4143.0751   0.29420864 -8.7261423e-14 3.654618e-13     57.10648     57.10648   -97.987206   -97.987206 3.4354499e-14   -1486647.8            0     13511190 
       0.197      197    4143.0751   0.29328324 -1.4631697e-13 2.5293591e-13     57.10648     57.10648    -97.98776    -97.98776 2.2019941e-13   -1486647.8            0     13511190 
       0.198      198    4143.0751   0.29236626 1.4227321e-13 -1.2849545e-13     57.10648     57.10648   -97.988306   -97.988306 8.7430702e-15   -1486647.8            0     13511190 
       0.199      199    4143.0751   0.29146532 6.6940594e-13 -3.5354319e-13     57.10648     57.10648   -97.988842   -97.988842 7.0612423e-14   -1486647.8            0     13511190 
         0.2      200    4143.0751   0.29054994 6.2490628e-13 -6.9115357e-14     57.10648     57.10648   -97.989386   -97.989386 1.1585554e-14   -1486647.8            0     13511190 
       0.201      201    4143.0751   0.28962663 6.2401287e-13 2.6607352e-13     57.10648     57.10648   -97.989937   -97.989937 4.807525e-14   -1486647.8            0     13511190 
       0.202      202    4143.0751   0.28872611 1.0616882e-12 1.9127179e-14     57.10648     57.10648   -97.990475   -97.990475 -1.6916328e-14   -1486647.8            0     13511190 
       0.203      203    4143.0751   0.28780196 8.8335757e-13 7.753276e-17     57.10648     57.10648   -97.991026   -97.991026 4.7273988e-14   -1486647.8            0     13511190 
       0.204      204    4143.0751   0.28689517 9.3099358e-13 6.646943e-14     57.10648     57.10648   -97.991565   -97.991565 -7.6173656e-15   -1486647.8            0     13511190 
       0.205      205    4143.0751   0.28600206 8.1755118e-13 -1.4066906e-13     57.10648     57.10648   -97.992096   -97.992096 -5.6739439e-14   -1486647.8            0     13511190 
       0.206      206    4143.0751   0.28506761 9.6419798e-13 -7.1582512e-14     57.10648     57.10648   -97.992654   -97.992654 -4.8075085e-14   -1486647.8            0     13511190 
       0.207      207    4143.0751   0.28415989 1.1907637e-12 2.4907413e-13     57.10648     57.10648   -97.993196   -97.993196 -6.0568388e-14   -1486647.8            0     13511190 
       0.208      208    4143.0751   0.28325321 1.421864e-12 6.5955704e-14     57.10648     57.10648   -97.993736   -97.993736 -5.4633622e-14   -1486647.8            0     13511190 
       0.209      209    4143.0751   0.28233312 1.5502599e-12 -2.0685244e-13     57.10648     57.10648   -97.994283   -97.994283 -4.6992808e-14   -1486647.8            0     13511190 
        0.21      210    4143.0751   0.28142953 1.1081145e-12 1.9917107e-14     57.10648     57.10648   -97.994821   -97.994821 6.7014515e-16   -1486647.8            0     13511190 
       0.211      211    4143.0751    0.2805106 1.0002791e-12 -2.1102059e-13     57.10648     57.10648    -97.99537    -97.99537 3.8207612e-13   -1486647.8            0     13511190 
       0.212      212    4143.0751    0.2795826 1.2692818e-12 -5.2533323e-13     57.10648     57.10648   -97.995924   -97.995924 1.5552217e-13   -1486647.8            0     13511190 
       0.213      213    4143.0751   0.27867506 1.3977837e-12 -6.5462858e-13     57.10648     57.10648   -97.996464   -97.996464 1.6146937e-13   -1486647.8            0     13511190 
       0.214      214    4143.0751   0.27777275 1.1951073e-12 -7.3085949e-13     57.10648     57.10648      -97.997      -97.997 2.8262068e-15   -1486647.8            0     13511190 
       0.215      215    4143.0751   0.27684335 8.6430299e-13 -5.1013159e-13     57.10648     57.10648   -97.997554   -97.997554 1.9692261e-14   -1486647.8            0     13511190 
       0.216      216    4143.0751    0.2759315 4.1372432e-13 -5.1546372e-13     57.10648     57.10648   -97.998099   -97.998099 1.1192004e-13   -1486647.8            0     13511190 
       0.217      217    4143.0751   0.27501835 4.2755805e-13 -3.4775436e-13     57.10648     57.10648   -97.998643   -97.998643 -1.0067793e-13   -1486647.8            0     13511190 
       0.218      218    4143.0751   0.27409203 3.1045546e-13 -3.960088e-13     57.10648     57.10648   -97.999194   -97.999194 -6.4258475e-14   -1486647.8            0     13511190 
       0.219      219    4143.0751   0.27319745 -4.4889831e-14 -6.196968e-13     57.10648     57.10648   -97.999726   -97.999726 -1.2154326e-13   -1486647.8            0     13511190 
        0.22      220    4143.0751   0.27227272 -7.0085885e-14 -9.5450022e-13     57.10648     57.10648   -98.000278   -98.000278 -1.1723112e-14   -1486647.8            0     13511190 
       0.221      221    4143.0751   0.27134231 1.0332385e-13 -6.2869182e-13     57.10648     57.10648   -98.000834   -98.000834 -4.1116775e-14   -1486647.8            0     13511190 
       0.222      222    4143.0751   0.27043624  1.14142e-13 -4.137447e-13     57.10648     57.10648   -98.001374   -98.001374 -5.1925068e-14   -1486647.8            0     13511190 
       0.223      223    4143.0751   0.26951407 -2.1856544e-13 -2.4980008e-13     57.10648     57.10648   -98.001922   -98.001922 1.4891497e-13   -1486647.8            0     13511190 
       0.224      224    4143.0751   0.26859861 -3.2778683e-13 -7.6375906e-14     57.10648     57.10648   -98.002466   -98.002466 1.8368859e-13   -1486647.8            0     13511190 
       0.225      225    4143.0751   0.26768287 -4.3192862e-13 -3.5704272e-13     57.10648     57.10648   -98.003013   -98.003013 7.3593377e-14   -1486647.8            0     13511190 
       0.226      226    4143.0751   0.26675365 -2.1056407e-13 -5.9133449e-13     57.10648     57.10648   -98.003568   -98.003568 3.7945858e-14   -1486647.8            0     13511190 
       0.227      227    4143.0751   0.26583013 1.7130945e-13 -6.445893e-13     57.10648     57.10648   -98.004118   -98.004118 1.0790989e-13   -1486647.8            0     13511190 
       0.228      228    4143.0751   0.26492516 2.5885727e-13 -9.7246938e-13     57.10648     57.10648   -98.004656   -98.004656 1.8511101e-13   -1486647.8            0     13511190 
       0.229      229    4143.0751   0.26400218 6.8484391e-14 -8.7048998e-13     57.10648     57.10648   -98.005205   -98.005205 1.585281e-13   -1486647.8            0     13511190 
        0.23      230    4143.0751   0.26307367 2.4242434e-13 -6.1659681e-13     57.10648     57.10648    -98.00576    -98.00576 3.8461547e-14   -1486647.8            0     13511190 
       0.231      231    4143.0751   0.26216044 4.9243786e-13 -5.9271136e-13     57.10648     57.10648   -98.006305   -98.006305 1.8606364e-13   -1486647.8            0     13511190 
       0.232      232    4143.0751   0.26122513 5.5426413e-13 -8.6829084e-13     57.10648     57.10648   -98.006862   -98.006862 1.5676389e-13   -1486647.8            0     13511190 
       0.233      233    4143.0751   0.26031456 3.8163288e-13 -7.4860289e-13     57.10648     57.10648   -98.007403   -98.007403 1.9344384e-13   -1486647.8            0     13511190 
       0.234      234    4143.0751   0.25940101 1.5295877e-13 -6.8734598e-13     57.10648     57.10648   -98.007947   -98.007947 2.3727942e-13   -1486647.8            0     13511190 
       0.235      235    4143.0751   0.25845704 -1.2664563e-15 -2.5771749e-13     57.10648     57.10648   -98.008511   -98.008511 -2.4658577e-14   -1486647.8            0     13511190 
       0.236      236    4143.0751    0.2575409 5.4005669e-13 -2.2212704e-13     57.10648     57.10648   -98.009058   -98.009058 -1.1002573e-13   -1486647.8            0     13511190 
       0.237      237    4143.0751   0.25661944 8.8170869e-13 -6.6940253e-13     57.10648     57.10648   -98.009606   -98.009606 2.1674265e-14   -1486647.8            0     13511190 
       0.238      238    4143.0751    0.2556909 8.3564133e-13 -8.0856131e-13     57.10648     57.10648   -98.010158   -98.010158 -1.8961789e-14   -1486647.8            0     13511190 
       0.239      239    4143.0751   0.25477096 4.9197393e-13 -9.0090519e-13     57.10648     57.10648   -98.010706   -98.010706 -5.8057711e-14   -1486647.8            0     13511190 
        0.24      240    4143.0751   0.25384153 4.2117376e-13 -8.2069628e-13     57.10648     57.10648   -98.011261   -98.011261 -3.9987762e-14   -1486647.8            0     13511190 
       0.241      241    4143.0751    0.2529057 7.803563e-13 -7.9842929e-13     57.10648     57.10648    -98.01182    -98.01182 -2.517232e-14   -1486647.8            0     13511190 
       0.242      242    4143.0751    0.2519876 9.7602889e-13 -7.1690081e-13     57.10648     57.10648   -98.012365   -98.012365 1.0406416e-13   -1486647.8            0     13511190 
       0.243      243    4143.0751   0.25106777 8.7404559e-13 -7.7348255e-13     57.10648     57.10648   -98.012913   -98.012913 1.6504724e-15   -1486647.8            0     13511190 
       0.244      244    4143.0751   0.25012412 5.1445359e-13 -7.3165243e-13     57.10648     57.10648   -98.013475   -98.013475 1.0111097e-13   -1486647.8            0     13511190 
       0.245      245    4143.0751   0.24920091 4.7695638e-13 -6.7742177e-13     57.10648     57.10648   -98.014027   -98.014027 3.5802037e-13   -1486647.8            0     13511190 
       0.246      246    4143.0751   0.24826757 8.6543159e-13 -3.7949467e-13     57.10648     57.10648   -98.014583   -98.014583 1.4556146e-13   -1486647.8            0     13511190 
       0.247      247    4143.0751   0.24733397 5.8963817e-13 -5.2426326e-13     57.10648     57.10648   -98.015138   -98.015138 2.4302243e-13   -1486647.8            0     13511190 
       0.248      248    4143.0751   0.24642064 6.3261743e-13 -6.1315544e-13     57.10648     57.10648   -98.015682   -98.015682 1.5481093e-13   -1486647.8            0     13511190 
       0.249      249    4143.0751   0.24547529 6.4226917e-13 -3.0512376e-13     57.10648     57.10648   -98.016246   -98.016246 9.5129846e-14   -1486647.8            0     13511190 
        0.25      250    4143.0751   0.24454097 2.6877372e-13 -8.0226794e-15     57.10648     57.10648   -98.016804   -98.016804 1.9599276e-13   -1486647.8            0     13511190 
       0.251      251    4143.0751     0.243618 9.3406433e-14 -1.8193379e-13     57.10648     57.10648   -98.017353   -98.017353 1.3255706e-13   -1486647.8            0     13511190 
       0.252      252    4143.0751   0.24267983 6.0104708e-13 -5.3682533e-13     57.10648     57.10648   -98.017911   -98.017911 1.9096613e-13   -1486647.8            0     13511190 
       0.253      253    4143.0751   0.24174991 8.5555469e-13 -3.6618095e-13     57.10648     57.10648   -98.018465   -98.018465 9.2709712e-14   -1486647.8            0     13511190 
       0.254      254    4143.0751   0.24081879 8.5685624e-13 -1.7810713e-13     57.10648     57.10648   -98.019021   -98.019021 1.4082823e-13   -1486647.8            0     13511190 
       0.255      255    4143.0751   0.23987642 7.2922222e-13 -2.9197394e-14     57.10648     57.10648   -98.019583   -98.019583 1.6795385e-13   -1486647.8            0     13511190 
       0.256      256    4143.0751    0.2389439 9.4177296e-13 1.2665875e-13     57.10648     57.10648   -98.020138   -98.020138 1.4845984e-13   -1486647.8            0     13511190 
       0.257      257    4143.0751   0.23802388 1.1180087e-12 -1.13426e-13     57.10648     57.10648   -98.020685   -98.020685 1.4619556e-13   -1486647.8            0     13511190 
       0.258      258    4143.0751   0.23707647 1.1247896e-12 -4.2292805e-13     57.10648     57.10648    -98.02125    -98.02125 -3.6523218e-15   -1486647.8            0     13511190 
       0.259      259    4143.0751   0.23613613 5.9422188e-13 -3.4576394e-13     57.10648     57.10648   -98.021811   -98.021811 1.4123401e-13   -1486647.8            0     13511190 
        0.26      260    4143.0751   0.23520532 6.668173e-13 -1.5606782e-13     57.10648     57.10648   -98.022367   -98.022367 7.5706683e-14   -1486647.8            0     13511190 
       0.261      261    4143.0751   0.23425569 6.4884843e-13 -7.6110376e-14     57.10648     57.10648   -98.022932   -98.022932 1.2920543e-13   -1486647.8            0     13511190 
       0.262      262    4143.0751   0.23333192 1.0171035e-12 2.5987343e-13     57.10648     57.10648   -98.023481   -98.023481 5.4918848e-14   -1486647.8            0     13511190 
       0.263      263    4143.0751   0.23239242 9.3711135e-13 2.662056e-13     57.10648     57.10648   -98.024041   -98.024041 2.0279489e-13   -1486647.8            0     13511190 
       0.264      264    4143.0751   0.23143939 1.1514791e-12 2.2524907e-13     57.10648     57.10648    -98.02461    -98.02461 1.9304696e-13   -1486647.8            0     13511190 
       0.265      265    4143.0751    0.2305103 8.5702141e-13 1.4807407e-13     57.10648     57.10648   -98.025164   -98.025164 1.9608364e-13   -1486647.8            0     13511190 
       0.266      266    4143.0751   0.22956882 9.7397304e-13 -2.2353351e-14     57.10648     57.10648   -98.025724   -98.025724 1.368278e-13   -1486647.8            0     13511190 
       0.267      267    4143.0751   0.22862514 9.0057117e-13 1.2314867e-13     57.10648     57.10648   -98.026285   -98.026285 2.9987468e-13   -1486647.8            0     13511190 
       0.268      268    4143.0751    0.2276865 1.0134169e-12 2.7821047e-13     57.10648     57.10648   -98.026845   -98.026845 1.2104292e-13   -1486647.8            0     13511190 
       0.269      269    4143.0751   0.22674003 1.1341208e-12 1.3090866e-13     57.10648     57.10648   -98.027411   -98.027411 3.1838311e-13   -1486647.8            0     13511190 
        0.27      270    4143.0751    0.2257918 1.0562609e-12 3.2899857e-13     57.10648     57.10648   -98.027975   -98.027975 3.2518629e-13   -1486647.8            0     13511190 
       0.271      271    4143.0751   0.22486159 8.368556e-13 6.8816882e-14     57.10648     57.10648   -98.028529   -98.028529 3.9945693e-13   -1486647.8            0     13511190 
       0.272      272    4143.0751   0.22391848 8.9200429e-13 -7.5775861e-14     57.10648     57.10648    -98.02909    -98.02909 1.6448415e-13   -1486647.8            0     13511190 
       0.273      273    4143.0751   0.22296401 1.0544827e-12 -1.9656013e-14     57.10648     57.10648    -98.02966    -98.02966 1.6794765e-14   -1486647.8            0     13511190 
       0.274      274    4143.0751   0.22203078 1.0163019e-12 9.3927657e-14     57.10648     57.10648   -98.030217   -98.030217 5.7881646e-14   -1486647.8            0     13511190 
       0.275      275    4143.0751   0.22107597 8.135051e-13 8.9598893e-14     57.10648     57.10648   -98.030785   -98.030785 7.2731052e-14   -1486647.8            0     13511190 
       0.276      276    4143.0751   0.22013128 9.4017189e-13 -4.4506698e-16     57.10648     57.10648   -98.031347   -98.031347 2.7797388e-13   -1486647.8            0     13511190 
       0.277      277    4143.0751   0.21919536 9.6102886e-13 -4.29238e-13     57.10648     57.10648   -98.031904   -98.031904 6.7757569e-14   -1486647.8            0     13511190 
       0.278      278    4143.0751     0.218232 7.2891475e-13 -3.609201e-13     57.10648     57.10648    -98.03248    -98.03248 2.2746062e-14   -1486647.8            0     13511190 
       0.279      279    4143.0751   0.21728612 8.649383e-13 -8.6670575e-14     57.10648     57.10648   -98.033044   -98.033044 1.2111979e-13   -1486647.8            0     13511190 
        0.28      280    4143.0751   0.21634132 9.8964103e-13 -8.8012309e-14     57.10648     57.10648   -98.033606   -98.033606 1.7327835e-13   -1486647.8            0     13511190 
       0.281      281    4143.0751   0.21538922 7.6979448e-13 -4.014734e-13     57.10648     57.10648   -98.034173   -98.034173 1.3108595e-13   -1486647.8            0     13511190 
       0.282      282    4143.0751   0.21444472 5.3066095e-13 -1.6001258e-13     57.10648     57.10648   -98.034735   -98.034735 2.7169679e-13   -1486647.8            0     13511190 
       0.283      283    4143.0751   0.21349404 7.8113956e-13 2.2343429e-13     57.10648     57.10648   -98.035303   -98.035303 1.7976826e-13   -1486647.8            0     13511190 
       0.284      284    4143.0751   0.21253387 1.7976015e-12 1.8883359e-13     57.10648     57.10648   -98.035876   -98.035876 -1.6441358e-13   -1486647.8            0     13511190 
       0.285      285    4143.0751   0.21158764 1.5664877e-12 -2.3806653e-13     57.10648     57.10648   -98.036439   -98.036439 -1.1304964e-13   -1486647.8            0     13511190 
       0.286      286    4143.0751   0.21064572 6.186518e-13 -2.9587991e-13     57.10648     57.10648   -98.036999   -98.036999 -1.7888151e-13   -1486647.8            0     13511190 
       0.287      287    4143.0751   0.20967927 8.6089793e-13 5.8206632e-14     57.10648     57.10648   -98.037575   -98.037575 7.2243094e-14   -1486647.8            0     13511190 
       0.288      288    4143.0751   0.20873025 1.2134303e-12 3.5208726e-13     57.10648     57.10648   -98.038142   -98.038142 2.6680021e-14   -1486647.8            0     13511190 
       0.289      289    4143.0751    0.2077781 1.0806368e-12 2.7849588e-13     57.10648     57.10648   -98.038709   -98.038709 2.3432022e-15   -1486647.8            0     13511190 
        0.29      290    4143.0751   0.20681871 7.1714044e-13 1.2392824e-13     57.10648     57.10648    -98.03928    -98.03928 7.9000545e-14   -1486647.8            0     13511190 
       0.291      291    4143.0751   0.20588225 6.7801141e-13 4.5571921e-14     57.10648     57.10648   -98.039837   -98.039837 1.0097727e-13   -1486647.8            0     13511190 
       0.292      292    4143.0751   0.20491805 8.3878358e-13 2.1088347e-13     57.10648     57.10648   -98.040412   -98.040412 1.2291261e-14   -1486647.8            0     13511190 
       0.293      293    4143.0751   0.20395292 7.2261547e-13 -4.4299833e-14     57.10648     57.10648   -98.040989   -98.040989 -7.2221699e-16   -1486647.8            0     13511190 
       0.294      294    4143.0751    0.2030058 9.1805338e-13 -4.223212e-13     57.10648     57.10648   -98.041553   -98.041553 1.2489773e-13   -1486647.8            0     13511190 
       0.295      295    4143.0751    0.2020493 1.056529e-12 -6.5290888e-13     57.10648     57.10648   -98.042122   -98.042122 3.892163e-14   -1486647.8            0     13511190 
       0.296      296    4143.0751   0.20109463 6.9283426e-13 -2.6189208e-13     57.10648     57.10648    -98.04269    -98.04269 3.7813247e-14   -1486647.8            0     13511190 
       0.297      297    4143.0751   0.20013863 2.1951878e-13 -4.2078211e-13     57.10648     57.10648   -98.043261   -98.043261 2.4714299e-14   -1486647.8            0     13511190 
       0.298      298    4143.0751   0.19917256 4.7691792e-13 -1.8687776e-13     57.10648     57.10648   -98.043837   -98.043837 1.2068128e-13   -1486647.8            0     13511190 
       0.299      299    4143.0751    0.1982098 4.4533824e-13 5.6308771e-14     57.10648     57.10648    -98.04441    -98.04441 1.5962931e-13   -1486647.8            0     13511190 
         0.3      300    4143.0751   0.19726438 4.2339797e-13 -1.88625e-13     57.10648     57.10648   -98.044973   -98.044973 1.4259984e-13   -1486647.8            0     13511190 
       0.301      301    4143.0751   0.19630048 3.321435e-13 -4.5438568e-13     57.10648     57.10648   -98.045547   -98.045547 9.2738393e-14   -1486647.8            0     13511190 
       0.302      302    4143.0751   0.19533566 5.0316652e-13 7.3181014e-14     57.10648     57.10648   -98.046123   -98.046123 1.0238809e-13   -1486647.8            0     13511190 
       0.303      303    4143.0751   0.19438301 8.9808662e-13 5.8019354e-13     57.10648     57.10648   -98.046691   -98.046691  1.53531e-13   -1486647.8            0     13511190 
       0.304      304    4143.0751    0.1934134 1.227652e-12 5.7750842e-13     57.10648     57.10648   -98.047268   -98.047268 1.6497846e-13   -1486647.8            0     13511190 
       0.305      305    4143.0751   0.19246413 1.1293481e-12 3.3931183e-14     57.10648     57.10648   -98.047833   -98.047833 7.3431496e-14   -1486647.8            0     13511190 
       0.306      306    4143.0751   0.19150543 7.608661e-13 -4.6571422e-13     57.10648     57.10648   -98.048404   -98.048404 -3.3307307e-15   -1486647.8            0     13511190 
       0.307      307    4143.0751   0.19052849 1.1101417e-12 7.6912418e-14     57.10648     57.10648   -98.048987   -98.048987 1.4059555e-13   -1486647.8            0     13511190 
       0.308      308    4143.0751   0.18957191 9.948012e-13 8.8118829e-13     57.10648     57.10648   -98.049558   -98.049558 4.2863301e-14   -1486647.8            0     13511190 
       0.309      309    4143.0751   0.18860893 9.9552606e-13 9.9411188e-13     57.10648     57.10648   -98.050131   -98.050131 2.5638418e-14   -1486647.8            0     13511190 
        0.31      310    4143.0751   0.18764359 8.5285794e-13 6.3678686e-13     57.10648     57.10648   -98.050705   -98.050705 9.900246e-14   -1486647.8            0     13511190 
       0.311      311    4143.0751   0.18668306 8.742073e-13 1.3738536e-13     57.10648     57.10648   -98.051278   -98.051278 1.4467186e-13   -1486647.8            0     13511190 
       0.312      312    4143.0751   0.18571549 1.1073126e-12 1.5654312e-13     57.10648     57.10648   -98.051855   -98.051855 1.285641e-14   -1486647.8            0     13511190 
       0.313      313    4143.0751   0.18474271 8.6364389e-13 6.302244e-13     57.10648     57.10648   -98.052435   -98.052435 -1.3177529e-13   -1486647.8            0     13511190 
       0.314      314    4143.0751   0.18378621  8.14399e-13 9.0565999e-13     57.10648     57.10648   -98.053004   -98.053004 5.4492052e-14   -1486647.8            0     13511190 
       0.315      315    4143.0751   0.18282652 8.5431536e-13 6.2037076e-13     57.10648     57.10648   -98.053575   -98.053575 1.2134566e-13   -1486647.8            0     13511190 
       0.316      316    4143.0751   0.18185086 1.0197162e-12 -2.1233201e-13     57.10648     57.10648   -98.054157   -98.054157 1.7703981e-14   -1486647.8            0     13511190 
       0.317      317    4143.0751   0.18088942 8.1529045e-13 8.4653964e-14     57.10648     57.10648   -98.054731   -98.054731 1.7864845e-13   -1486647.8            0     13511190 
       0.318      318    4143.0751   0.17991467 5.8243979e-13 6.1592015e-13     57.10648     57.10648   -98.055312   -98.055312 9.8445863e-14   -1486647.8            0     13511190 
       0.319      319    4143.0751   0.17894787 6.4601816e-13 1.2383397e-12     57.10648     57.10648   -98.055887   -98.055887 -1.8122926e-14   -1486647.8            0     13511190 
        0.32      320    4143.0751   0.17799148 8.9538792e-13 1.1115462e-12     57.10648     57.10648   -98.056457   -98.056457 1.0020314e-13   -1486647.8            0     13511190 
       0.321      321    4143.0751   0.17700965 1.0425188e-12 3.2808119e-13     57.10648     57.10648   -98.057042   -98.057042  9.57388e-14   -1486647.8            0     13511190 
       0.322      322    4143.0751   0.17604203 8.9690583e-13 3.0192486e-13     57.10648     57.10648    -98.05762    -98.05762 6.6818396e-14   -1486647.8            0     13511190 
       0.323      323    4143.0751   0.17507803 5.7204198e-13 6.8179486e-13     57.10648     57.10648   -98.058194   -98.058194 1.082581e-13   -1486647.8            0     13511190 
       0.324      324    4143.0751   0.17410556 3.6384753e-13 6.2830029e-13     57.10648     57.10648   -98.058772   -98.058772 1.7302582e-13   -1486647.8            0     13511190 
       0.325      325    4143.0751   0.17313852 2.7227773e-13 4.3852528e-13     57.10648     57.10648   -98.059348   -98.059348 7.8892097e-14   -1486647.8            0     13511190 
       0.326      326    4143.0751   0.17216695 8.2347438e-13 3.4803568e-13     57.10648     57.10648   -98.059928   -98.059928 3.0289259e-13   -1486647.8            0     13511190 
       0.327      327    4143.0751   0.17118963 6.8969771e-13 4.3496498e-13     57.10648     57.10648   -98.060511   -98.060511 -1.92331e-17   -1486647.8            0     13511190 
       0.328      328    4143.0751   0.17022173 5.1730478e-13 6.6564802e-13     57.10648     57.10648   -98.061087   -98.061087 9.4913277e-15   -1486647.8            0     13511190 
       0.329      329    4143.0751   0.16925886 5.0851121e-13 3.2593926e-13     57.10648     57.10648    -98.06166    -98.06166 1.4966675e-13   -1486647.8            0     13511190 
        0.33      330    4143.0751   0.16827733 4.4368574e-13 5.0770499e-13     57.10648     57.10648   -98.062245   -98.062245 -7.1704832e-16   -1486647.8            0     13511190 
       0.331      331    4143.0751   0.16730796 3.1453656e-13 2.2902502e-13     57.10648     57.10648   -98.062824   -98.062824 -7.3951773e-15   -1486647.8            0     13511190 
       0.332      332    4143.0751    0.1663372 2.288646e-13 -1.6085978e-13     57.10648     57.10648   -98.063402   -98.063402 -3.9457271e-14   -1486647.8            0     13511190 
       0.333      333    4143.0751   0.16535725 7.2691352e-13 1.8514097e-13     57.10648     57.10648   -98.063986   -98.063986 9.2217599e-15   -1486647.8            0     13511190 
       0.334      334    4143.0751   0.16439612 6.0363926e-13 5.5099699e-13     57.10648     57.10648   -98.064558   -98.064558 -1.1094931e-14   -1486647.8            0     13511190 
       0.335      335    4143.0751   0.16341438 3.6038179e-13 1.7144012e-13     57.10648     57.10648   -98.065143   -98.065143 4.4271826e-14   -1486647.8            0     13511190 
       0.336      336    4143.0751   0.16243397 3.0450918e-13 2.3077063e-13     57.10648     57.10648   -98.065728   -98.065728 1.1063024e-14   -1486647.8            0     13511190 
       0.337      337    4143.0751   0.16146894 3.1617346e-13 5.7034783e-13     57.10648     57.10648   -98.066303   -98.066303 1.8516872e-13   -1486647.8            0     13511190 
       0.338      338    4143.0751    0.1604921 6.2945759e-13 4.3606341e-13     57.10648     57.10648   -98.066884   -98.066884 5.2771093e-14   -1486647.8            0     13511190 
       0.339      339    4143.0751   0.15951958 1.3303836e-12 3.5342026e-13     57.10648     57.10648   -98.067463   -98.067463 1.1945024e-13   -1486647.8            0     13511190 
        0.34      340    4143.0751   0.15854425 1.6821806e-12 7.198319e-13     57.10648     57.10648   -98.068045   -98.068045 -1.1806403e-13   -1486647.8            0     13511190 
       0.341      341    4143.0751   0.15756003 8.8206951e-13 8.7678712e-13     57.10648     57.10648   -98.068632   -98.068632 1.6672675e-13   -1486647.8            0     13511190 
       0.342      342    4143.0751   0.15658115 -9.0273065e-14 4.1582735e-13     57.10648     57.10648   -98.069215   -98.069215 2.4522024e-15   -1486647.8            0     13511190 
       0.343      343    4143.0751   0.15561462 1.344901e-14 -2.9536483e-14     57.10648     57.10648    -98.06979    -98.06979 1.1145034e-13   -1486647.8            0     13511190 
       0.344      344    4143.0751   0.15463376 4.6912075e-13 8.9972757e-15     57.10648     57.10648   -98.070375   -98.070375 1.1580828e-13   -1486647.8            0     13511190 
       0.345      345    4143.0751   0.15365097 1.078186e-13 -8.8231075e-14     57.10648     57.10648   -98.070961   -98.070961 -1.1823644e-15   -1486647.8            0     13511190 
       0.346      346    4143.0751   0.15267894 -2.5282093e-13 -1.9162552e-13     57.10648     57.10648   -98.071541   -98.071541 -1.0100407e-13   -1486647.8            0     13511190 
       0.347      347    4143.0751   0.15169459 1.2647908e-13 -1.4315602e-13     57.10648     57.10648   -98.072127   -98.072127 1.4538285e-14   -1486647.8            0     13511190 
       0.348      348    4143.0751   0.15073161 3.047596e-13 -9.960148e-14     57.10648     57.10648     -98.0727     -98.0727 1.3406437e-13   -1486647.8            0     13511190 
       0.349      349    4143.0751   0.14977536 4.8886008e-13 5.8914689e-14     57.10648     57.10648    -98.07327    -98.07327 -6.0956964e-14   -1486647.8            0     13511190 
        0.35      350    4143.0751   0.14883587 5.5937205e-13 9.6925263e-14     57.10648     57.10648    -98.07383    -98.07383 -6.8619614e-14   -1486647.8            0     13511190 
       0.351      351    4143.0751   0.14797181 5.0089336e-13 1.4873828e-13     57.10648     57.10648   -98.074346   -98.074346 1.0087222e-13   -1486647.8            0     13511190 
       0.352      352    4143.0751   0.14719767 9.8828004e-14 2.0111344e-13     57.10648     57.10648   -98.074806   -98.074806 -1.2245647e-13   -1486647.8            0     13511190 
       0.353      353    4143.0751   0.14656855  9.48702e-14 1.9927435e-13     57.10648     57.10648   -98.075181   -98.075181 6.0246394e-14   -1486647.8            0     13511190 
       0.354      354    4143.0751   0.14610974 3.5124467e-13 -2.0448149e-13     57.10648     57.10648   -98.075454   -98.075454 6.8860603e-14   -1486647.8            0     13511190 
       0.355      355    4143.0751   0.14580074 5.8552897e-13 -2.0009977e-13     57.10648     57.10648   -98.075639   -98.075639 7.3319543e-14   -1486647.8            0     13511190 
       0.356      356    4143.0751    0.1456065 4.137217e-13 -1.0488267e-14     57.10648     57.10648   -98.075755   -98.075755 -5.3654524e-14   -1486647.8            0     13511190 
       0.357      357    4143.0751   0.14547514 5.1853078e-13 -4.4386001e-14     57.10648     57.10648   -98.075833   -98.075833 -1.0137584e-13   -1486647.8            0     13511190 
Loop time of 31.7307 on 64 procs for 357 steps with 360800 atoms

90.8% CPU use with 64 MPI tasks x 1 OpenMP threads

Minimization stats:
  Stopping criterion = energy tolerance
  Energy initial, next-to-last, final = 
     -1486645.77951318  -1486647.82549146  -1486647.82549146
  Force two-norm initial, final = 7.1080974 5.2099856e-05
  Force max component initial, final = 0.19826945 4.1239386e-07
  Final line search alpha, max atom move = 1.0000000 4.1239386e-07
  Iterations, force evaluations = 357 714

MPI task timing breakdown:
Section |  min time  |  avg time  |  max time  |%varavg| %total
---------------------------------------------------------------
Pair    | 2.345      | 7.0126     | 15.255     | 201.4 | 22.10
Neigh   | 0          | 0          | 0          |   0.0 |  0.00
Comm    | 0.028514   | 2.6258     | 7.979      | 222.0 |  8.28
Output  | 2.4162     | 2.4809     | 2.548      |   1.5 |  7.82
Modify  | 0          | 0          | 0          |   0.0 |  0.00
Other   |            | 19.61      |            |       | 61.81

Nlocal:        5637.50 ave       18400 max           0 min
Histogram: 44 0 0 0 0 0 0 0 1 19
Nghost:        5643.81 ave       18428 max           0 min
Histogram: 43 1 0 0 0 0 0 1 1 18
Neighs:         0.00000 ave           0 max           0 min
Histogram: 64 0 0 0 0 0 0 0 0 0
FullNghs:      944975.0 ave  3.0912e+06 max           0 min
Histogram: 44 0 0 0 0 0 0 0 1 19

Total # of neighbors = 60478400
Ave neighs/atom = 167.62306
Neighbor list builds = 0
Dangerous builds = 0
variable oshikko equal pxx
variable p0 equal ${oshikko}
variable p0 equal 0.145475137214448
variable unko equal lx
variable lx0 equal ${unko}
variable lx0 equal 4143.075124

variable current_time equal time

variable boxlen equal lx
variable boxwidth equal ly
variable pressure equal pxx
variable epsilon equal ln(lx/${lx0})
variable epsilon equal ln(lx/4143.075124)
variable sigma equal abs(pxx-${p0})
variable sigma equal abs(pxx-0.145475137214448)
fix extra all print 1 "${boxlen} ${boxwidth} ${pressure} ${sigma} ${epsilon} ${current_time} $t" file sscurve.txt

#fix strain all deform 1000 x trate 0.0001
#fix strain1 all deform 1 x scale 1.0001
#run 1
#minimize 1.0e-30 1.0e-30 100000 100000
#unfix strain1
#fix strain2 all deform 1 x scale 1.0001
#run 1
#minimize 1.0e-30 1.0e-30 100000 100000
#unfix strain2
#fix strain1 all deform 1 x scale 1.0001
#run 1
#minimize 1.0e-30 1.0e-30 100000 100000
#quit

minimize 1.0e-30 1.0e-30 100000 100000
WARNING: Using 'neigh_modify every 1 delay 0 check yes' setting during minimization (../min.cpp:188)
Per MPI rank memory allocation (min/avg/max) = 2.376 | 4.647 | 9.765 Mbytes
Time Step Lx Pxx Pxy Pxz Ly Lz Pyy Pzz Pyz TotEng Temp Volume 
       0.357      357    4143.0751   0.14547514 5.2472646e-13 -1.341556e-14     57.10648     57.10648   -98.075833   -98.075833 -5.7574621e-14   -1486647.8            0     13511190 
       0.358      358    4143.0751   0.14547488 6.4728477e-13 -1.3950431e-13     57.10648     57.10648   -98.075833   -98.075833 -9.395097e-14   -1486647.8            0     13511190 
       0.359      359    4143.0751   0.14547392 5.5230694e-13 -2.5791056e-13     57.10648     57.10648   -98.075833   -98.075833 3.7744315e-14   -1486647.8            0     13511190 
Loop time of 0.218379 on 64 procs for 2 steps with 360800 atoms

88.9% CPU use with 64 MPI tasks x 1 OpenMP threads

Minimization stats:
  Stopping criterion = energy tolerance
  Energy initial, next-to-last, final = 
     -1486647.82549146  -1486647.82549146  -1486647.82549146
  Force two-norm initial, final = 5.2099856e-05 5.1592805e-05
  Force max component initial, final = 4.1239386e-07 3.3643958e-07
  Final line search alpha, max atom move = 1.0000000 3.3643958e-07
  Iterations, force evaluations = 2 4

MPI task timing breakdown:
Section |  min time  |  avg time  |  max time  |%varavg| %total
---------------------------------------------------------------
Pair    | 0.015503   | 0.048432   | 0.10771    |  16.9 | 22.18
Neigh   | 0          | 0          | 0          |   0.0 |  0.00
Comm    | 0.00019113 | 0.018799   | 0.058287   |  18.8 |  8.61
Output  | 0.0065092  | 0.0068607  | 0.0071786  |   0.2 |  3.14
Modify  | 0          | 0          | 0          |   0.0 |  0.00
Other   |            | 0.1443     |            |       | 66.07

Nlocal:        5637.50 ave       18400 max           0 min
Histogram: 44 0 0 0 0 0 0 0 1 19
Nghost:        5643.81 ave       18428 max           0 min
Histogram: 43 1 0 0 0 0 0 1 1 18
Neighs:         0.00000 ave           0 max           0 min
Histogram: 64 0 0 0 0 0 0 0 0 0
FullNghs:      944975.0 ave  3.0912e+06 max           0 min
Histogram: 44 0 0 0 0 0 0 0 1 19

Total # of neighbors = 60478400
Ave neighs/atom = 167.62306
Neighbor list builds = 0
Dangerous builds = 0
label		deformationLoop
#variable	i loop 25
variable	j loop 5
variable 	expRate equal 1+0.0001*$i
variable 	expRate equal 1+0.0001*0.359
variable 	expRate equal 1+0.0001*$i
variable 	expRate equal 1+0.0001*0.359
fix strain 	all deform 1 x scale ${expRate}
fix strain 	all deform 1 x scale 1.0000359
run 		1
4143.075124 57.10648 0.145473919529348 1.21768509983577e-06 0 0 0
Per MPI rank memory allocation (min/avg/max) = 1.949 | 3.578 | 7.251 Mbytes
Time Step Lx Pxx Pxy Pxz Ly Lz Pyy Pzz Pyz TotEng Temp Volume 
           0      359    4143.0751   0.14547392 5.323504e-13 -2.3544999e-13     57.10648     57.10648   -98.075833   -98.075833 1.2138635e-14   -1486647.8            0     13511190 
4143.075124 57.10648 0.14547391937503 1.21783941792186e-06 0 0.001 4.92596864330554e-15
       0.001      360    4143.2239    0.1454687 5.0124035e-13 -3.3524417e-13     57.10648     57.10648   -98.072313   -98.072313 1.6747504e-14   -1486647.8 4.9259686e-15     13511675 
Loop time of 0.0686198 on 64 procs for 1 steps with 360800 atoms

Performance: 1.259 ns/day, 19.061 hours/ns, 14.573 timesteps/s
86.5% CPU use with 64 MPI tasks x 1 OpenMP threads

MPI task timing breakdown:
Section |  min time  |  avg time  |  max time  |%varavg| %total
---------------------------------------------------------------
Pair    | 0.0046283  | 0.010456   | 0.02201    |   7.1 | 15.24
Neigh   | 0          | 0          | 0          |   0.0 |  0.00
Comm    | 2.7694e-05 | 0.0074095  | 0.023733   |  12.0 | 10.80
Output  | 0.0071655  | 0.0087375  | 0.0094061  |   0.8 | 12.73
Modify  | 0.0096573  | 0.033448   | 0.045768   |   8.2 | 48.74
Other   |            | 0.008569   |            |       | 12.49

Nlocal:        5637.50 ave       18400 max           0 min
Histogram: 44 0 0 0 0 0 0 0 1 19
Nghost:        5643.81 ave       18428 max           0 min
Histogram: 43 1 0 0 0 0 0 1 1 18
Neighs:         0.00000 ave           0 max           0 min
Histogram: 64 0 0 0 0 0 0 0 0 0
FullNghs:      944975.0 ave  3.0912e+06 max           0 min
Histogram: 44 0 0 0 0 0 0 0 1 19

Total # of neighbors = 60478400
Ave neighs/atom = 167.62306
Neighbor list builds = 0
Dangerous builds = 0
print 		"${boxlen} ${boxwidth} ${pressure} ${sigma} ${epsilon} ${current_time} $t" append sstest.txt
4143.22386039695 57.10648 0.145468697048806 6.44016564199656e-06 3.5899355610511e-05 0.001 4.92596864330554e-15
print 		"run 1 end"
run 1 end
minimize 	1.0e-30 1.0e-30 100000 100000
WARNING: Using 'neigh_modify every 1 delay 0 check yes' setting during minimization (../min.cpp:188)
Per MPI rank memory allocation (min/avg/max) = 2.376 | 4.647 | 9.765 Mbytes
Time Step Lx Pxx Pxy Pxz Ly Lz Pyy Pzz Pyz TotEng Temp Volume 
       0.001      360    4143.2239   -26.968745 4.2079753e-13 -5.3360974e-13     57.10648     57.10648   -114.23711   -114.23711 -9.1451508e-14   -1486647.8 4.9259686e-15     13511675 
       0.002      361    4143.2239   -26.877231 1.067877e-12 3.6199027e-12     57.10648     57.10648   -114.17042   -114.17042 -1.3465249e-13   -1486647.8 4.9259686e-15     13511675 
       0.003      362    4143.2239   -26.784485 4.1588953e-12 4.8463514e-11     57.10648     57.10648   -114.11808   -114.11808 -9.6894623e-13   -1486647.8 4.9259686e-15     13511675 
       0.004      363    4143.2239   -26.693034 4.531894e-11 6.1586056e-10     57.10648     57.10648   -114.06218   -114.06218 -1.2129696e-11   -1486647.8 4.9259686e-15     13511675 
       0.005      364    4143.2239   -26.605359 4.3077359e-10 6.4116343e-09     57.10648     57.10648   -114.01062   -114.01062 -1.2331724e-10   -1486647.8 4.9259686e-15     13511675 
       0.006      365    4143.2239   -26.533287 1.5432241e-09 2.5392653e-08     57.10648     57.10648   -113.96772   -113.96772 -4.6443534e-10   -1486647.8 4.9259686e-15     13511675 
       0.007      366    4143.2239   -26.464219 5.0484018e-10 1.1414599e-08     57.10648     57.10648   -113.92612   -113.92612 -1.7357507e-10   -1486647.8 4.9259686e-15     13511675 
       0.008      367    4143.2239   -26.379858 -5.9002177e-11 3.1120596e-09     57.10648     57.10648   -113.87611   -113.87611 4.4202661e-12   -1486647.8 4.9259686e-15     13511675 
       0.009      368    4143.2239   -26.294763 -2.7399628e-10 4.5888014e-09     57.10648     57.10648   -113.82556   -113.82556 1.0269903e-10   -1486647.8 4.9259686e-15     13511675 
        0.01      369    4143.2239   -26.219887 -8.5975761e-10 1.2035607e-08     57.10648     57.10648    -113.7806    -113.7806 2.5728445e-10   -1486647.8 4.9259686e-15     13511675 
       0.011      370    4143.2239   -26.150215 -9.3354697e-10 7.8442751e-09     57.10648     57.10648   -113.73919   -113.73919 9.0301718e-11   -1486647.8 4.9259686e-15     13511675 
       0.012      371    4143.2239   -26.068811 -8.6795293e-10 3.1198851e-09     57.10648     57.10648   -113.69103   -113.69104 -3.6482252e-11   -1486647.8 4.9259686e-15     13511675 
       0.013      372    4143.2239   -25.985841 -1.9328554e-09 4.6388251e-09     57.10648     57.10648   -113.64108   -113.64108 -8.8295078e-11   -1486647.8 4.9259686e-15     13511675 
       0.014      373    4143.2239    -25.91383 -3.6473722e-09 7.8733616e-09     57.10648     57.10648   -113.59843   -113.59843 -9.5895475e-11   -1486647.8 4.9259686e-15     13511675 
       0.015      374    4143.2239   -25.840814 -1.8761324e-09 3.512958e-09     57.10648     57.10648   -113.55519   -113.55519 3.7314886e-11   -1486647.8 4.9259686e-15     13511675 
       0.016      375    4143.2239   -25.757666 -1.3337099e-09 2.4527302e-09     57.10648     57.10648   -113.50513   -113.50513 1.2940484e-10   -1486647.8 4.9259686e-15     13511675 
       0.017      376    4143.2239   -25.679613 -2.6939918e-09 5.6652264e-09     57.10648     57.10648   -113.45895   -113.45895 1.3812558e-10   -1486647.8 4.9259686e-15     13511675 
       0.018      377    4143.2239   -25.609478 -2.4796535e-09 5.0421247e-09     57.10648     57.10648    -113.4173    -113.4173 -1.17583e-11   -1486647.8 4.9259686e-15     13511675 
       0.019      378    4143.2239   -25.530026 -1.1994425e-09 2.8606161e-09     57.10648     57.10648   -113.36955   -113.36955 1.6162213e-10   -1486647.8 4.9259686e-15     13511675 
        0.02      379    4143.2239   -25.450499 -7.8213217e-10 4.9955868e-09     57.10648     57.10648   -113.32243   -113.32243 5.1934937e-10   -1486647.8 4.9259686e-15     13511675 
       0.021      380    4143.2239   -25.377658 -1.2411971e-10 6.7554801e-09     57.10648     57.10648   -113.27914   -113.27914 2.8331196e-10   -1486647.8 4.9259686e-15     13511675 
[...]
       0.379    19808    4151.7044   -2.5909372 1.3338749e-09 5.8450186e-09     57.10648     57.10648   -99.502165   -99.502165 -4.1601951e-09   -1486647.8 6.5926349e-13     13539331 
        0.38    19809    4151.7044   -2.5023579 1.0334909e-09 5.1970943e-09     57.10648     57.10648   -99.449327   -99.449327 -3.4902125e-09   -1486647.8 6.5926349e-13     13539331 
       0.381    19810    4151.7044    -2.413781 2.6449754e-09 2.5567387e-09     57.10648     57.10648   -99.396588   -99.396588 -3.613392e-09   -1486647.8 6.5926349e-13     13539331 
       0.382    19811    4151.7044   -2.3259681 2.679094e-09 1.1977024e-09     57.10648     57.10648   -99.344305   -99.344305 -2.9199155e-09   -1486647.8 6.5926349e-13     13539331 
       0.383    19812    4151.7044    -2.237191 2.1146554e-09 1.3063876e-09     57.10648     57.10648   -99.291351   -99.291351 -2.492605e-09   -1486647.8 6.5926349e-13     13539331 
       0.384    19813    4151.7044   -2.1485734 3.682377e-09 2.3402531e-09     57.10648     57.10648    -99.23857    -99.23857 -3.6785907e-09   -1486647.8 6.5926349e-13     13539331 
       0.385    19814    4151.7044   -2.0607083 4.117661e-09  4.06074e-09     57.10648     57.10648   -99.186268   -99.186268 -4.1035345e-09   -1486647.8 6.5926349e-13     13539331 
       0.386    19815    4151.7044   -1.9716547 3.3185941e-09 4.3662888e-09     57.10648     57.10648   -99.133157   -99.133157 -3.7382977e-09   -1486647.8 6.5926349e-13     13539331 
       0.387    19816    4151.7044   -1.8826961 4.5324293e-09 2.1216187e-09     57.10648     57.10648   -99.080154   -99.080154 -3.7346403e-09   -1486647.8 6.5926349e-13     13539331 
       0.388    19817    4151.7044   -1.7944324 5.7611361e-09 -5.7829695e-10     57.10648     57.10648   -99.027622   -99.027622 -2.8137789e-09   -1486647.8 6.5926349e-13     13539331 
       0.389    19818    4151.7044    -1.705703 5.9913648e-09 -6.636187e-10     57.10648     57.10648   -98.974716   -98.974716 -1.7408821e-09   -1486647.8 6.5926349e-13     13539331 
        0.39    19819    4151.7044   -1.6176383 7.2862771e-09 7.6539068e-10     57.10648     57.10648   -98.922228   -98.922228 -1.1936119e-09   -1486647.8 6.5926349e-13     13539331 
       0.391    19820    4151.7044    -1.529294 8.2829916e-09  2.06134e-09     57.10648     57.10648   -98.869651   -98.869651 -3.6403261e-10   -1486647.8 6.5926349e-13     13539331 
       0.392    19821    4151.7044    -1.440201 8.6425882e-09 3.5648625e-09     57.10648     57.10648   -98.816544   -98.816544 -1.2599632e-10   -1486647.8 6.5926349e-13     13539331 
       0.393    19822    4151.7044   -1.3523577 8.7965096e-09 3.7477139e-09     57.10648     57.10648   -98.764173   -98.764173 -7.7259505e-10   -1486647.8 6.5926349e-13     13539331 
       0.394    19823    4151.7044   -1.2640406 7.8421381e-09 2.2483111e-09     57.10648     57.10648   -98.711608   -98.711608 -1.2861575e-09   -1486647.8 6.5926349e-13     13539331 
       0.395    19824    4151.7044   -1.1743997 7.6288039e-09 2.4662858e-09     57.10648     57.10648   -98.658193   -98.658193 -1.9325721e-09   -1486647.8 6.5926349e-13     13539331 
       0.396    19825    4151.7044   -1.0861995 8.3424192e-09 4.0433927e-09     57.10648     57.10648   -98.605598   -98.605598 -2.3910012e-09   -1486647.8 6.5926349e-13     13539331 
       0.397    19826    4151.7044  -0.99842612 7.850481e-09 4.0899697e-09     57.10648     57.10648   -98.553347   -98.553347 -1.8555302e-09   -1486647.8 6.5926349e-13     13539331 
       0.398    19827    4151.7044  -0.90935232 7.7549681e-09 3.6196262e-09     57.10648     57.10648   -98.500291   -98.500291 -1.4838396e-09   -1486647.8 6.5926349e-13     13539331 
       0.399    19828    4151.7044  -0.82096575 7.944198e-09 3.9096456e-09     57.10648     57.10648   -98.447576   -98.447576 -1.5574086e-09   -1486647.8 6.5926349e-13     13539331 
         0.4    19829    4151.7044  -0.73349847 5.5805054e-09 3.6644814e-09     57.10648     57.10648   -98.395495   -98.395495 -1.9402472e-09   -1486647.8 6.5926349e-13     13539331 
       0.401    19830    4151.7044  -0.64490887 4.0668025e-09 2.2384924e-09     57.10648     57.10648   -98.342745   -98.342745 -2.6081971e-09   -1486647.8 6.5926349e-13     13539331 
       0.402    19831    4151.7044  -0.55584465 5.299276e-09 1.1894672e-09     57.10648     57.10648   -98.289624   -98.289624 -2.864651e-09   -1486647.8 6.5926349e-13     13539331 
       0.403    19832    4151.7044  -0.46812806 5.0089558e-09 1.3055878e-09     57.10648     57.10648   -98.237382   -98.237382 -3.2515357e-09   -1486647.8 6.5926349e-13     13539331 
       0.404    19833    4151.7044  -0.38175683 3.5598874e-09 2.2393352e-10     57.10648     57.10648   -98.185964   -98.185964 -4.196923e-09   -1486647.8 6.5926349e-13     13539331 
       0.405    19834    4151.7044  -0.29727345 4.2656496e-09 -1.6937989e-09     57.10648     57.10648   -98.135579    -98.13558 -4.1140349e-09   -1486647.8 6.5926349e-13     13539331 
       0.406    19835    4151.7044  -0.21765088 3.8915294e-09 -9.407099e-10     57.10648     57.10648   -98.088142   -98.088142 -3.1470117e-09   -1486647.8 6.5926349e-13     13539331 
       0.407    19836    4151.7044  -0.14579993 2.185666e-09 1.9589748e-10     57.10648     57.10648    -98.04538    -98.04538 -2.83296e-09   -1486647.8 6.5926349e-13     13539331 
       0.408    19837    4151.7044 -0.086535138 2.2486677e-09 -4.2626951e-10     57.10648     57.10648   -98.010035   -98.010035 -2.8102511e-09   -1486647.8 6.5926349e-13     13539331 
       0.409    19838    4151.7044 -0.044072945 1.8955993e-09 -7.6427222e-10     57.10648     57.10648   -97.984727   -97.984727 -2.17216e-09   -1486647.8 6.5926349e-13     13539331 
        0.41    19839    4151.7044 -0.016935279 6.6945169e-10 -1.1350006e-09     57.10648     57.10648   -97.968588   -97.968588 -1.1130133e-09   -1486647.8 6.5926349e-13     13539331 
       0.411    19840    4151.7044 -0.0020517823 1.4739843e-10 -1.5995717e-09     57.10648     57.10648   -97.959709   -97.959709 -4.602469e-10   -1486647.8 6.5926349e-13     13539331 
       0.412    19841    4151.7044 0.0046348046 -2.7164801e-10 -1.7433147e-09     57.10648     57.10648   -97.955717   -97.955717 -1.9805335e-10   -1486647.8 6.5926349e-13     13539331 
       0.413    19842    4151.7044 0.0073021675 -6.0126954e-10 -1.798882e-09     57.10648     57.10648   -97.954137   -97.954137 -7.3610246e-11   -1486647.8 6.5926349e-13     13539331 
       0.414    19843    4151.7044 0.0082494095 -7.0048934e-10 -1.812029e-09     57.10648     57.10648   -97.953571   -97.953571 -2.3056893e-11   -1486647.8 6.5926349e-13     13539331 
       0.415    19844    4151.7044  0.008540142 -7.3361143e-10 -1.8076982e-09     57.10648     57.10648   -97.953396   -97.953396 -7.6565822e-12   -1486647.8 6.5926349e-13     13539331 
       0.416    19845    4151.7044 0.0086235061 -7.4724878e-10 -1.8062317e-09     57.10648     57.10648   -97.953347   -97.953347 -2.4606629e-12   -1486647.8 6.5926349e-13     13539331 
       0.417    19846    4151.7044 0.0086447245 -7.5026135e-10 -1.8037323e-09     57.10648     57.10648   -97.953335   -97.953335 -6.4861962e-13   -1486647.8 6.5926349e-13     13539331 
       0.418    19847    4151.7044 0.0086495553 -7.515232e-10 -1.8000672e-09     57.10648     57.10648   -97.953332   -97.953332 -8.8954685e-14   -1486647.8 6.5926349e-13     13539331 
       0.419    19848    4151.7044   0.00865057 -7.5172705e-10 -1.7961583e-09     57.10648     57.10648   -97.953331   -97.953331 -1.0263714e-13   -1486647.8 6.5926349e-13     13539331 
        0.42    19849    4151.7044 0.0086506015 -7.5176023e-10 -1.7924142e-09     57.10648     57.10648   -97.953331   -97.953331 8.4450489e-14   -1486647.8 6.5926349e-13     13539331 
       0.421    19850    4151.7044 0.0086505054 -7.5194572e-10 -1.7886084e-09     57.10648     57.10648   -97.953331   -97.953331 -1.4035623e-13   -1486647.8 6.5926349e-13     13539331 
Loop time of 32.7763 on 64 procs for 368 steps with 360800 atoms

91.0% CPU use with 64 MPI tasks x 1 OpenMP threads

Minimization stats:
  Stopping criterion = energy tolerance
  Energy initial, next-to-last, final = 
      -1486647.8199306  -1486647.82549176  -1486647.82549176
  Force two-norm initial, final = 0.012111674 5.6021279e-06
  Force max component initial, final = 0.00041790241 5.1323011e-08
  Final line search alpha, max atom move = 1.0000000 5.1323011e-08
  Iterations, force evaluations = 368 736

MPI task timing breakdown:
Section |  min time  |  avg time  |  max time  |%varavg| %total
---------------------------------------------------------------
Pair    | 2.3481     | 6.9261     | 15.552     | 203.1 | 21.13
Neigh   | 0          | 0          | 0          |   0.0 |  0.00
Comm    | 0.029561   | 2.5701     | 8.1241     | 226.8 |  7.84
Output  | 2.4624     | 2.5247     | 2.5855     |   1.7 |  7.70
Modify  | 0          | 0          | 0          |   0.0 |  0.00
Other   |            | 20.76      |            |       | 63.32

Nlocal:        5637.50 ave       18400 max           0 min
Histogram: 44 0 0 0 0 0 0 0 1 19
Nghost:        5624.28 ave       19053 max           0 min
Histogram: 43 1 0 0 0 0 0 2 0 18
Neighs:         0.00000 ave           0 max           0 min
Histogram: 64 0 0 0 0 0 0 0 0 0
FullNghs:      944975.0 ave  3.0912e+06 max           0 min
Histogram: 44 0 0 0 0 0 0 0 1 19

Total # of neighbors = 60478400
Ave neighs/atom = 167.62306
Neighbor list builds = 0
Dangerous builds = 0
print 		"minimize end"
minimize end
#if "$i == 25" then quit
if "$i == 5" then quit
jump SELF deformationLoop
#variable	i loop 25
variable	j loop 5
variable 	expRate equal 1+0.0001*$i
variable 	expRate equal 1+0.0001*0.421
variable 	expRate equal 1+0.0001*$i
variable 	expRate equal 1+0.0001*0.421
fix strain 	all deform 1 x scale ${expRate}
fix strain 	all deform 1 x scale 1.0000421
run 		1
4151.70442514015 57.10648 0.00865050539272282 0.136824631821725 0.00208065909459067 0.053 6.59263485067442e-13
Per MPI rank memory allocation (min/avg/max) = 1.949 | 3.617 | 7.655 Mbytes
Time Step Lx Pxx Pxy Pxz Ly Lz Pyy Pzz Pyz TotEng Temp Volume 
       0.053    19850    4151.7044 0.0086505054 -7.5201654e-10 -1.7885146e-09     57.10648     57.10648   -97.953331   -97.953331 -1.1502646e-13   -1486647.8 6.5926349e-13     13539331 
4151.70442514015 57.10648 0.00865049604003325 0.136824641174415 0.00208065909459067 0.054 6.58792076742609e-13
       0.054    19851    4151.8792 0.0086501319 -7.5186217e-10 -1.7883601e-09     57.10648     57.10648   -97.949207   -97.949207 -6.6984951e-14   -1486647.8 6.5879208e-13     13539901 
Loop time of 0.0677533 on 64 procs for 1 steps with 360800 atoms

Performance: 1.275 ns/day, 18.820 hours/ns, 14.759 timesteps/s
83.6% CPU use with 64 MPI tasks x 1 OpenMP threads

MPI task timing breakdown:
Section |  min time  |  avg time  |  max time  |%varavg| %total
---------------------------------------------------------------
Pair    | 0.0046998  | 0.0099891  | 0.022216   |   7.0 | 14.74
Neigh   | 0          | 0          | 0          |   0.0 |  0.00
Comm    | 2.6749e-05 | 0.0068982  | 0.023113   |  11.9 | 10.18
Output  | 0.0071591  | 0.0087262  | 0.0093996  |   0.8 | 12.88
Modify  | 0.010445   | 0.033731   | 0.045213   |   7.9 | 49.78
Other   |            | 0.008409   |            |       | 12.41

Nlocal:        5637.50 ave       18400 max           0 min
Histogram: 44 0 0 0 0 0 0 0 1 19
Nghost:        5624.28 ave       19053 max           0 min
Histogram: 43 1 0 0 0 0 0 2 0 18
Neighs:         0.00000 ave           0 max           0 min
Histogram: 64 0 0 0 0 0 0 0 0 0
FullNghs:      944975.0 ave  3.0912e+06 max           0 min
Histogram: 44 0 0 0 0 0 0 0 1 19

Total # of neighbors = 60478400
Ave neighs/atom = 167.62306
Neighbor list builds = 0
Dangerous builds = 0
print 		"${boxlen} ${boxwidth} ${pressure} ${sigma} ${epsilon} ${current_time} $t" append sstest.txt
4151.87921189645 57.10648 0.00865013186948155 0.136825005344966 0.0021227582084104 0.054 6.58792076742609e-13
print 		"run 1 end"
run 1 end
minimize 	1.0e-30 1.0e-30 100000 100000
WARNING: Using 'neigh_modify every 1 delay 0 check yes' setting during minimization (../min.cpp:188)
Per MPI rank memory allocation (min/avg/max) = 2.376 | 4.690 | 10.22 Mbytes
Time Step Lx Pxx Pxy Pxz Ly Lz Pyy Pzz Pyz TotEng Temp Volume 
       0.054    19851    4151.8792   -31.722434 -7.5184551e-10 -1.7884659e-09     57.10648     57.10648    -116.8661    -116.8661 2.2174385e-13   -1486647.8 6.5879208e-13     13539901 
       0.055    19852    4151.8792    -31.61533 -7.5247057e-10 -1.7808118e-09     57.10648     57.10648   -116.78805   -116.78805 8.5541297e-14   -1486647.8 6.5879208e-13     13539901 
       0.056    19853    4151.8792    -31.50676 -7.5375695e-10 -1.7657026e-09     57.10648     57.10648   -116.72678   -116.72678 -1.3332841e-13   -1486647.8 6.5879208e-13     13539901 
       0.057    19854    4151.8792   -31.399394 -7.5524766e-10 -1.7424249e-09     57.10648     57.10648   -116.66114   -116.66114 -1.2603215e-12   -1486647.8 6.5879208e-13     13539901 
       0.058    19855    4151.8792   -31.293314 -7.4668835e-10 -1.6996523e-09     57.10648     57.10648   -116.59884   -116.59884 -1.5728129e-11   -1486647.8 6.5879208e-13     13539901 
       0.059    19856    4151.8792   -31.188668 -6.1988984e-10 -1.5064761e-09     57.10648     57.10648   -116.53616   -116.53616 -1.7480539e-10   -1486647.8 6.5879208e-13     13539901 
        0.06    19857    4151.8792   -31.086448 5.2817115e-10 -4.6838265e-11     57.10648     57.10648   -116.47511   -116.47511 -1.6602715e-09   -1486647.8 6.5879208e-13     13539901 
       0.061    19858    4151.8792   -30.992623 6.7264711e-09 7.7585463e-09     57.10648     57.10648   -116.41966   -116.41966 -1.030751e-08   -1486647.8 6.5879208e-13     13539901 
       0.062    19859    4151.8792   -30.913381 9.4251213e-09 1.1268193e-08     57.10648     57.10648    -116.3722    -116.3722 -1.548774e-08   -1486647.8 6.5879208e-13     13539901 
       0.063    19860    4151.8792   -30.823328 2.6616995e-09 2.535405e-09     57.10648     57.10648   -116.31824   -116.31824 -6.4656795e-09   -1486647.8 6.5879208e-13     13539901 
       0.064    19861    4151.8792     -30.7248 2.5222036e-09 9.2874112e-10     57.10648     57.10648   -116.26017   -116.26017 -6.1603637e-09   -1486647.8 6.5879208e-13     13539901 
       0.065    19862    4151.8792   -30.635189 7.7136778e-09 3.6736073e-09     57.10648     57.10648   -116.20632   -116.20632 -1.3610462e-08   -1486647.8 6.5879208e-13     13539901 
       0.066    19863    4151.8792   -30.553588 5.160437e-09 3.2079137e-09     57.10648     57.10648   -116.15757   -116.15757 -1.0333421e-08   -1486647.8 6.5879208e-13     13539901 
       0.067    19864    4151.8792   -30.458325 1.7023059e-09 2.0119083e-09     57.10648     57.10648    -116.1014    -116.1014 -5.5260933e-09   -1486647.8 6.5879208e-13     13539901 
       0.068    19865    4151.8792   -30.363401 4.1187658e-09 5.2272976e-09     57.10648     57.10648   -116.04434   -116.04434 -9.6824487e-09   -1486647.8 6.5879208e-13     13539901 
       0.069    19866    4151.8792   -30.281769 4.8049117e-09 5.9287373e-09     57.10648     57.10648   -115.99571   -115.99571 -1.2165684e-08   -1486647.8 6.5879208e-13     13539901 
        0.07    19867    4151.8792   -30.191251 4.1660548e-10 1.6099887e-09     57.10648     57.10648   -115.94223   -115.94223 -5.9961394e-09   -1486647.8 6.5879208e-13     13539901 
       0.071    19868    4151.8792   -30.095205 -2.9290871e-10 2.1534352e-09     57.10648     57.10648   -115.88456   -115.88456 -6.2975835e-09   -1486647.8 6.5879208e-13     13539901 
       0.072    19869    4151.8792     -30.0105 5.227962e-10 3.3640971e-09     57.10648     57.10648   -115.83414   -115.83414 -8.7582625e-09   -1486647.8 6.5879208e-13     13539901 
       0.073    19870    4151.8792   -29.922445 -2.5497312e-10 9.7692164e-10     57.10648     57.10648   -115.78202   -115.78202 -5.9535777e-09   -1486647.8 6.5879208e-13     13539901 
       0.074    19871    4151.8792   -29.827369 -5.4824805e-10 1.3237623e-09     57.10648     57.10648   -115.72503   -115.72503 -6.777043e-09   -1486647.8 6.5879208e-13     13539901 
       0.075    19872    4151.8792   -29.741335 -2.6242495e-10  2.30786e-09     57.10648     57.10648   -115.67379   -115.67379 -1.0109263e-08   -1486647.8 6.5879208e-13     13539901 
       0.076    19873    4151.8792   -29.653979 -3.4133622e-10 6.0966869e-10     57.10648     57.10648   -115.62202   -115.62202 -7.9491265e-09   -1486647.8 6.5879208e-13     13539901 
       0.077    19874    4151.8792   -29.560355 8.712087e-10 2.4793553e-09     57.10648     57.10648     -115.566     -115.566 -8.4883287e-09   -1486647.8 6.5879208e-13     13539901 
       0.078    19875    4151.8792   -29.474102 3.1016022e-09 6.5976575e-09     57.10648     57.10648   -115.51457   -115.51457 -1.0279208e-08   -1486647.8 6.5879208e-13     13539901 
       0.079    19876    4151.8792   -29.385919 2.7440683e-09 4.3938944e-09     57.10648     57.10648   -115.46227   -115.46227 -7.3813079e-09   -1486647.8 6.5879208e-13     13539901 
        0.08    19877    4151.8792   -29.292657 3.6604609e-09 3.3988343e-09     57.10648     57.10648   -115.40656   -115.40656 -7.4831323e-09   -1486647.8 6.5879208e-13     13539901 
       0.081    19878    4151.8792   -29.206375 4.6296764e-09 4.5690648e-09     57.10648     57.10648   -115.35506   -115.35506 -8.2523593e-09   -1486647.8 6.5879208e-13     13539901 
       0.082    19879    4151.8792   -29.118264 3.3268572e-09 3.8022233e-09     57.10648     57.10648   -115.30276   -115.30276 -5.4760424e-09   -1486647.8 6.5879208e-13     13539901 
       0.083    19880    4151.8792   -29.025147 6.318382e-09 5.1349644e-09     57.10648     57.10648   -115.24723   -115.24723 -5.2600455e-09   -1486647.8 6.5879208e-13     13539901 
       0.084    19881    4151.8792   -28.938186 1.0429861e-08 7.6123704e-09     57.10648     57.10648   -115.19528   -115.19528 -5.7280781e-09   -1486647.8 6.5879208e-13     13539901 
       0.085    19882    4151.8792   -28.850836 6.8877922e-09 5.2212323e-09     57.10648     57.10648   -115.14338   -115.14338 -3.522307e-09   -1486647.8 6.5879208e-13     13539901 
       0.086    19883    4151.8792   -28.758502 6.7344066e-09 4.1051817e-09     57.10648     57.10648   -115.08841   -115.08841 -2.9206273e-09   -1486647.8 6.5879208e-13     13539901 
       0.087    19884    4151.8792   -28.670386 9.885484e-09 4.607535e-09     57.10648     57.10648   -115.03573   -115.03573 -3.5536375e-09   -1486647.8 6.5879208e-13     13539901 
       0.088    19885    4151.8792   -28.583084 7.4843101e-09 3.231274e-09     57.10648     57.10648   -114.98381   -114.98381 -2.9115918e-09   -1486647.8 6.5879208e-13     13539901 
       0.089    19886    4151.8792   -28.491743 6.3265718e-09 2.5456724e-09     57.10648     57.10648   -114.92951   -114.92951 -2.8997627e-09   -1486647.8 6.5879208e-13     13539901 
        0.09    19887    4151.8792   -28.403078 8.1138673e-09 2.4806803e-09     57.10648     57.10648   -114.87649   -114.87649 -4.3515166e-09   -1486647.8 6.5879208e-13     13539901 
       0.091    19888    4151.8792   -28.315481 6.305213e-09 1.5322918e-09     57.10648     57.10648   -114.82434   -114.82434 -4.5867327e-09   -1486647.8 6.5879208e-13     13539901 
       0.092    19889    4151.8792   -28.224748 4.3997095e-09 2.3385197e-09     57.10648     57.10648   -114.77046   -114.77046 -4.1963525e-09   -1486647.8 6.5879208e-13     13539901 
       0.093    19890    4151.8792   -28.136331 3.6569991e-09 4.7904989e-09     57.10648     57.10648   -114.71759   -114.71759 -4.5980765e-09   -1486647.8 6.5879208e-13     13539901 
       0.094    19891    4151.8792   -28.048334 1.0541176e-09 4.6172021e-09     57.10648     57.10648   -114.66514   -114.66514 -4.3692222e-09   -1486647.8 6.5879208e-13     13539901 
       0.095    19892    4151.8792   -27.956805 -3.5370268e-10 4.1496821e-09     57.10648     57.10648   -114.61083   -114.61