LAMMPS (29 Sep 2021 - Update 1)
KOKKOS mode is enabled (../kokkos.cpp:97)
  will use up to 1 GPU(s) per node
  using 1 OpenMP thread(s) per MPI task
Reading data file ...
  orthogonal box = (0.0000000 0.0000000 0.0000000) to (4143.0751 57.106480 57.106480)
  64 by 1 by 1 MPI processor grid
  reading atoms ...
  360800 atoms
  read_data CPU = 5.052 seconds
800 atoms in group source
800 atoms in group detector
400 atoms in group edge
400 atoms in group edge_buf
120000 atoms in group buffer
WARNING: Using 'neigh_modify every 1 delay 0 check yes' setting during minimization (../min.cpp:188)
Neighbor list info ...
  update every 1 steps, delay 0 steps, check yes
  max neighbors/atom: 2000, page size: 100000
  master list distance cutoff = 7.6
  ghost atom cutoff = 7.6
  binsize = 7.6, bins = 546 8 8
  1 neighbor lists, perpetual/occasional/extra = 1 0 0
  (1) pair eam/alloy/kk, perpetual
      attributes: full, newton off, kokkos_device
      pair build: full/bin/kk/device
      stencil: full/bin/3d
      bin: kk/device
Setting up cg/kk style minimization ...
  Unit style    : metal
  Current step  : 0
WARNING: Fixes cannot yet send exchange data in Kokkos communication, switching to classic exchange/border communication (../comm_kokkos.cpp:581)
Per MPI rank memory allocation (min/avg/max) = 2.376 | 4.616 | 9.668 Mbytes
Time Step Lx Pxx Pxy Pxz Ly Lz Pyy Pzz Pyz 
           0        0    4143.0751    12.766153 -4.2873225e-14 -2.2057138e-14     57.10648     57.10648   -85.456504   -85.456504 -1.3031014e-14 
       0.001        1    4143.0751    4.9624194 -3.8538254e-14 -2.1809136e-14     57.10648     57.10648   -95.172201   -95.172201 -5.1749086e-13 
       0.002        2    4143.0751    2.7193318 -4.7255124e-14 -1.4418502e-14     57.10648     57.10648   -97.006352   -97.006352 3.9738479e-13 
       0.003        3    4143.0751    3.2072967 -4.3857433e-14 -9.4362547e-14     57.10648     57.10648   -96.140203   -96.140203 -1.3635668e-13 
       0.004        4    4143.0751    2.6400573 9.182689e-14 1.4471166e-13     57.10648     57.10648   -96.501525   -96.501525 4.1138116e-13 
       0.005        5    4143.0751    1.8692697 3.6538726e-14 1.5465149e-16     57.10648     57.10648   -97.038029   -97.038029 9.6006733e-15 
       0.006        6    4143.0751    1.5880349  1.79331e-13 1.4743588e-13     57.10648     57.10648   -97.222835   -97.222835  -5.1083e-13 
       0.007        7    4143.0751    1.4304795 7.2171278e-14 6.8058384e-14     57.10648     57.10648   -97.302236   -97.302236 4.7251357e-14 
       0.008        8    4143.0751    1.3102667 1.3382327e-14 -7.3070735e-16     57.10648     57.10648   -97.373091   -97.373091 -1.4093701e-13 
       0.009        9    4143.0751    1.1651506 4.3407157e-14 -7.8374245e-14     57.10648     57.10648   -97.467596   -97.467596 2.1296234e-13 
        0.01       10    4143.0751    1.0801049 -5.6799495e-14 5.4552673e-14     57.10648     57.10648   -97.519517   -97.519517 -1.6111573e-13 
       0.011       11    4143.0751    1.0182961 8.719265e-15 6.1570342e-14     57.10648     57.10648    -97.55383    -97.55383 -7.821694e-14 
       0.012       12    4143.0751   0.96492776 -1.9717129e-14 -6.8335784e-14     57.10648     57.10648   -97.585187   -97.585187 -1.1335931e-13 
       0.013       13    4143.0751   0.90630688 7.6474694e-16  2.46304e-14     57.10648     57.10648   -97.622306   -97.622306 7.6789795e-14 
       0.014       14    4143.0751   0.86458184 -5.9094875e-14 3.1826681e-14     57.10648     57.10648   -97.647661   -97.647661 8.3718821e-14 
       0.015       15    4143.0751   0.83242506 2.7303864e-14 -3.2143634e-14     57.10648     57.10648   -97.665622   -97.665622 -1.3085864e-13 
       0.016       16    4143.0751   0.80214445 -5.437933e-14 -1.1859738e-13     57.10648     57.10648   -97.683642   -97.683642 -1.4599479e-13 
       0.017       17    4143.0751   0.77060995 3.3308032e-14 1.6810478e-13     57.10648     57.10648   -97.703317   -97.703317 9.230874e-14 
       0.018       18    4143.0751   0.74604836 -7.6838043e-14 5.6432023e-14     57.10648     57.10648   -97.718075   -97.718075 -2.8908791e-14 
       0.019       19    4143.0751   0.72612731 6.1142803e-14 -2.6119722e-14     57.10648     57.10648   -97.729394   -97.729394 -1.6508592e-13 
        0.02       20    4143.0751   0.70656474 -7.014451e-15 9.353105e-14     57.10648     57.10648   -97.741056   -97.741056 1.6717509e-14 
       0.021       21    4143.0751   0.68688565 2.1839419e-13 -6.4211135e-13     57.10648     57.10648   -97.753242   -97.753242 -3.7825688e-13 
       0.022       22    4143.0751   0.67069186 3.0403844e-12 -7.4859822e-12     57.10648     57.10648   -97.762916   -97.762916 -2.9842966e-12 
       0.023       23    4143.0751   0.65754562 2.0569956e-11 -4.9878748e-11     57.10648     57.10648   -97.770448   -97.770448 -1.9230095e-11 
       0.024       24    4143.0751   0.64679812 7.0318134e-11 -1.6607291e-10     57.10648     57.10648   -97.776836   -97.776836 -6.0398395e-11 
       0.025       25    4143.0751   0.63572692 2.6403049e-11 -5.9034855e-11     57.10648     57.10648   -97.783601   -97.783601 -1.8321177e-11 
       0.026       26    4143.0751   0.62405534 6.6902843e-12 -1.4790771e-11     57.10648     57.10648   -97.790726   -97.790726 -2.0424391e-12 
       0.027       27    4143.0751    0.6132715 1.4501915e-12 -1.8933254e-11     57.10648     57.10648   -97.797024   -97.797024 1.8666082e-13 
       0.028       28    4143.0751   0.60492801 -9.5100553e-12 -5.6102033e-11     57.10648     57.10648   -97.801877   -97.801877 9.8591266e-13 
       0.029       29    4143.0751   0.59726555 -1.1196393e-11 -4.9730594e-11     57.10648     57.10648   -97.806477   -97.806477 -8.8411545e-13 
        0.03       30    4143.0751   0.58819293 -3.3590899e-12 -1.2494198e-11     57.10648     57.10648   -97.812034   -97.812034 -1.3410594e-12 
       0.031       31    4143.0751   0.57978829 -3.8428504e-12 -7.7934424e-13     57.10648     57.10648   -97.817066   -97.817066 -2.0115475e-12 
       0.032       32    4143.0751   0.57308364 -6.8159946e-12 1.0318619e-11     57.10648     57.10648   -97.820957   -97.820957 -6.1872577e-13 
       0.033       33    4143.0751    0.5673785 -1.9297602e-12 -5.1582651e-12     57.10648     57.10648   -97.824306   -97.824306 1.8890133e-12 
       0.034       34    4143.0751   0.56000728 -6.0501166e-13 -1.234288e-11     57.10648     57.10648   -97.828769   -97.828769 2.498104e-12 
       0.035       35    4143.0751   0.55330975 -7.1357888e-12 -1.1051546e-11     57.10648     57.10648   -97.832842   -97.832842 5.6306364e-12 
       0.036       36    4143.0751   0.54801149 -1.4436135e-11 -5.9430424e-12     57.10648     57.10648   -97.835978   -97.835978 1.0094955e-11 
       0.037       37    4143.0751   0.54283669 -4.0452641e-12 -2.7554306e-12     57.10648     57.10648    -97.83899    -97.83899 4.7025897e-12 
       0.038       38    4143.0751   0.53718549 -2.5001061e-12 -1.9544947e-12     57.10648     57.10648   -97.842343   -97.842343 3.6342219e-12 
       0.039       39    4143.0751   0.53180726 -6.2074838e-12 -1.4776707e-12     57.10648     57.10648   -97.845612   -97.845612 3.283487e-12 
        0.04       40    4143.0751   0.52733521 -4.8314323e-12 -3.7084439e-12     57.10648     57.10648   -97.848315   -97.848315 9.6086865e-13 
       0.041       41    4143.0751   0.52241056 -5.4813775e-12 -3.9722046e-12     57.10648     57.10648   -97.851216   -97.851216 5.7223276e-13 
       0.042       42    4143.0751   0.51801766 -1.6252059e-11 -8.3892884e-13     57.10648     57.10648   -97.853785   -97.853785 1.7510721e-12 
       0.043       43    4143.0751   0.51403268 -2.0071279e-11 6.5213363e-12     57.10648     57.10648   -97.856169   -97.856169 2.4535176e-12 
       0.044       44    4143.0751   0.50962832 -6.0067927e-12 4.2030672e-12     57.10648     57.10648   -97.858843   -97.858843 1.5235344e-12 
       0.045       45    4143.0751    0.5053767 -4.5760244e-12 -3.7087247e-12     57.10648     57.10648   -97.861393   -97.861393 4.3014226e-12 
       0.046       46    4143.0751   0.50181432 -6.8093986e-12 -1.050902e-11     57.10648     57.10648   -97.863482   -97.863482 6.6170514e-12 
       0.047       47    4143.0751   0.49841834 -5.2090335e-12 -1.7370228e-12     57.10648     57.10648   -97.865476   -97.865476 2.4164994e-12 
       0.048       48    4143.0751   0.49442052 -7.1870406e-12 2.2192828e-12     57.10648     57.10648   -97.867879   -97.867879 1.3260369e-12 
       0.049       49    4143.0751   0.49090767 -1.2908351e-11 -1.4329717e-13     57.10648     57.10648   -97.870007   -97.870007 1.9446339e-12 
        0.05       50    4143.0751   0.48776352 -8.5547168e-12 -2.6558912e-12     57.10648     57.10648   -97.871882   -97.871882 9.2005311e-13 
       0.051       51    4143.0751   0.48442655 -3.9340091e-12 -1.1830778e-12     57.10648     57.10648   -97.873838   -97.873838 5.6845224e-13 
       0.052       52    4143.0751   0.48130919 -5.1821867e-12 1.3053643e-12     57.10648     57.10648   -97.875683   -97.875683 1.6652946e-12 
       0.053       53    4143.0751   0.47832878 -4.2987831e-12 4.3775644e-12     57.10648     57.10648   -97.877479   -97.877479 1.1699381e-12 
       0.054       54    4143.0751   0.47523744 -1.7443445e-12 2.7005583e-12     57.10648     57.10648   -97.879348   -97.879348 3.942266e-13 
       0.055       55    4143.0751   0.47225333 -3.8957937e-12 2.1035973e-12     57.10648     57.10648   -97.881115   -97.881115 2.5847643e-12 
       0.056       56    4143.0751   0.46974561 -5.7219652e-12 3.8971011e-12     57.10648     57.10648   -97.882587   -97.882587 3.7564489e-12 
       0.057       57    4143.0751   0.46704866 -4.1483329e-12 3.1246496e-12     57.10648     57.10648   -97.884189   -97.884189 2.3814976e-12 
       0.058       58    4143.0751   0.46412373 -3.917724e-12 -3.742879e-12     57.10648     57.10648   -97.885956   -97.885956 3.399124e-12 
       0.059       59    4143.0751   0.46164974 -4.8440433e-12 -1.0230999e-11     57.10648     57.10648   -97.887442   -97.887442 5.6568653e-12 
        0.06       60    4143.0751    0.4591739 -4.6325115e-12 -5.4693735e-12     57.10648     57.10648   -97.888906   -97.888906 4.2354675e-12 
       0.061       61    4143.0751   0.45670341 -8.9792115e-12 -6.6163458e-12     57.10648     57.10648   -97.890358   -97.890358 6.274535e-12 
       0.062       62    4143.0751    0.4543646 -1.9870503e-11 -1.5865448e-11     57.10648     57.10648   -97.891757   -97.891757 1.1928101e-11 
       0.063       63    4143.0751   0.45205007 -1.4752664e-11 -1.0789901e-11     57.10648     57.10648   -97.893154   -97.893154 8.3409164e-12 
       0.064       64    4143.0751   0.44965282 -1.259508e-11 -1.0453896e-11     57.10648     57.10648   -97.894589   -97.894589 8.9242508e-12 
       0.065       65    4143.0751   0.44748651 -1.557604e-11 -1.6527375e-11     57.10648     57.10648   -97.895866   -97.895866 1.5298642e-11 
       0.066       66    4143.0751   0.44550857 -1.1449363e-11 -1.1334742e-11     57.10648     57.10648   -97.897033   -97.897033 1.1947353e-11 
       0.067       67    4143.0751   0.44323621 -9.16908e-12 -8.861582e-12     57.10648     57.10648   -97.898395   -97.898395 8.9742656e-12 
       0.068       68    4143.0751   0.44112152 -1.0213505e-11 -1.1333173e-11     57.10648     57.10648    -97.89967    -97.89967 1.0832149e-11 
       0.069       69    4143.0751   0.43917233 -7.1790888e-12 -6.5250922e-12     57.10648     57.10648   -97.900832   -97.900832 7.9530545e-12 
        0.07       70    4143.0751   0.43713549 -4.6802816e-12 -3.3124861e-12     57.10648     57.10648   -97.902032   -97.902032 5.0217293e-12 
       0.071       71    4143.0751   0.43523163 -7.274366e-12 -5.4694584e-12     57.10648     57.10648    -97.90316    -97.90316 6.1193779e-12 
       0.072       72    4143.0751   0.43333658 -5.8834901e-12 -2.646829e-12     57.10648     57.10648   -97.904298   -97.904298 4.1117464e-12 
       0.073       73    4143.0751   0.43136372 -3.4330909e-12 -2.3585786e-14     57.10648     57.10648   -97.905486   -97.905486 2.1793708e-12 
       0.074       74    4143.0751   0.42950062 -3.8450473e-12 -1.6396667e-12     57.10648     57.10648   -97.906592   -97.906592 2.6860109e-12 
       0.075       75    4143.0751   0.42781076 -2.9157454e-12 -1.8804854e-12     57.10648     57.10648   -97.907588   -97.907588 1.9507735e-12 
       0.076       76    4143.0751   0.42599033 -2.4027327e-12 -1.2520333e-12     57.10648     57.10648    -97.90867    -97.90867 1.6317315e-12 
       0.077       77    4143.0751   0.42413843 -2.9061576e-12 -2.6592955e-12     57.10648     57.10648   -97.909784   -97.909784 2.7006012e-12 
       0.078       78    4143.0751   0.42250691 -2.9956142e-12 -3.34425e-12     57.10648     57.10648   -97.910763   -97.910763 2.8121732e-12 
       0.079       79    4143.0751   0.42078663 -1.8650484e-12 -2.7206513e-12     57.10648     57.10648   -97.911783   -97.911783 2.1544068e-12 
        0.08       80    4143.0751   0.41915132 -2.3987382e-12 -3.6775927e-12     57.10648     57.10648   -97.912747   -97.912747 2.9971535e-12 
       0.081       81    4143.0751   0.41758854 -1.9607823e-12 -3.1772998e-12     57.10648     57.10648   -97.913679   -97.913679 2.8914036e-12 
       0.082       82    4143.0751   0.41588568 -7.7213521e-13 -1.8131868e-12     57.10648     57.10648   -97.914704   -97.914704 1.4441335e-12 
       0.083       83    4143.0751   0.41424704 -1.3052209e-12 -3.8170205e-12     57.10648     57.10648   -97.915684   -97.915684 2.3487664e-12 
       0.084       84    4143.0751   0.41275708 -1.7124544e-12 -4.9288321e-12     57.10648     57.10648   -97.916565   -97.916565 2.6424216e-12 
       0.085       85    4143.0751   0.41125784 -1.0212937e-12 -3.3038456e-12     57.10648     57.10648   -97.917451   -97.917451 1.8430903e-12 
       0.086       86    4143.0751   0.40967899 -6.7004023e-13 -4.4331523e-12     57.10648     57.10648   -97.918396   -97.918396 2.8635942e-12 
       0.087       87    4143.0751   0.40821287 -1.1741326e-13 -4.2928105e-12     57.10648     57.10648   -97.919277   -97.919277 2.9696403e-12 
       0.088       88    4143.0751   0.40672004 1.8822803e-13 -2.624285e-12     57.10648     57.10648   -97.920168   -97.920168 2.0696124e-12 
       0.089       89    4143.0751   0.40524769 2.2541953e-13 -3.3342931e-12     57.10648     57.10648   -97.921038   -97.921038 2.7816836e-12 
        0.09       90    4143.0751   0.40390331 4.1980372e-13 -3.2414929e-12     57.10648     57.10648   -97.921835   -97.921835 3.2123797e-12 
       0.091       91    4143.0751   0.40243327 5.6485423e-13 -1.8850181e-12     57.10648     57.10648   -97.922715   -97.922715 2.0356317e-12 
       0.092       92    4143.0751   0.40098512 4.2766668e-13 -2.1366765e-12     57.10648     57.10648   -97.923585   -97.923585 1.8988886e-12 
       0.093       93    4143.0751    0.3996515 8.7689957e-14 -1.8396123e-12     57.10648     57.10648   -97.924379   -97.924379 1.8182144e-12 
       0.094       94    4143.0751   0.39828916 2.7067562e-13 -3.0199722e-13     57.10648     57.10648   -97.925184   -97.925184 1.0518704e-12 
       0.095       95    4143.0751   0.39692429 8.3806766e-14 -1.4212942e-13     57.10648     57.10648   -97.925995   -97.925995 7.5192309e-13 
       0.096       96    4143.0751   0.39560049 -5.0657917e-14 -1.768546e-13     57.10648     57.10648   -97.926789   -97.926789 9.1348789e-13 
       0.097       97    4143.0751    0.3942629 4.0209665e-13 2.6580031e-13     57.10648     57.10648   -97.927591   -97.927591 5.9542249e-13 
       0.098       98    4143.0751   0.39292709 2.2397821e-15 -4.5097575e-13     57.10648     57.10648   -97.928384   -97.928384 8.9858329e-13 
       0.099       99    4143.0751   0.39170883 -7.7267367e-14 -5.0496966e-13     57.10648     57.10648   -97.929105   -97.929105 1.0678145e-12 
         0.1      100    4143.0751   0.39042615 4.2034488e-13 3.5378158e-13     57.10648     57.10648   -97.929868   -97.929868 8.3658502e-13 
       0.101      101    4143.0751   0.38910176 7.1709463e-13 6.3277465e-13     57.10648     57.10648   -97.930663   -97.930663 1.1168074e-12 
       0.102      102    4143.0751   0.38788147 3.2842035e-13 5.1549364e-13     57.10648     57.10648   -97.931393   -97.931393 9.2532091e-13 
       0.103      103    4143.0751   0.38661696 -1.1043026e-13 3.2132798e-13     57.10648     57.10648   -97.932143   -97.932143 7.3336998e-13 
       0.104      104    4143.0751   0.38539703 -8.014855e-13 -1.86257e-13     57.10648     57.10648   -97.932865   -97.932865 6.9759093e-13 
       0.105      105    4143.0751   0.38421861 -8.5332298e-13 -6.2238016e-13     57.10648     57.10648   -97.933569   -97.933569 7.4322162e-13 
       0.106      106    4143.0751   0.38296844 -3.1657275e-13 -4.0673801e-14     57.10648     57.10648   -97.934319   -97.934319 5.5637951e-13 
       0.107      107    4143.0751   0.38174341 -7.7743585e-13 -3.2606247e-13     57.10648     57.10648   -97.935051   -97.935051 3.8374942e-13 
       0.108      108    4143.0751   0.38060172 -9.5308119e-13 -1.9411329e-13     57.10648     57.10648   -97.935727   -97.935727 4.3101386e-13 
       0.109      109    4143.0751   0.37943994 -4.3958258e-13 -1.3969497e-13     57.10648     57.10648   -97.936415   -97.936415 3.8758874e-13 
        0.11      110    4143.0751   0.37822503 -2.2686249e-13 -8.1267332e-13     57.10648     57.10648   -97.937142   -97.937142 7.7454144e-13 
       0.111      111    4143.0751   0.37708622 -3.0723031e-13 -4.8920942e-13     57.10648     57.10648   -97.937825   -97.937825 8.9161517e-13 
       0.112      112    4143.0751   0.37592272 -4.7678162e-13 -1.4869807e-13     57.10648     57.10648   -97.938518   -97.938518 6.5340109e-13 
       0.113      113    4143.0751   0.37477478 -1.3569863e-12 -8.9634282e-13     57.10648     57.10648   -97.939198   -97.939198 7.3458216e-13 
       0.114      114    4143.0751   0.37369879 -2.0451314e-12 -1.2951106e-12     57.10648     57.10648   -97.939837   -97.939837 8.4539161e-13 
       0.115      115    4143.0751   0.37254023 -1.5248744e-12 -1.1190789e-12     57.10648     57.10648    -97.94053    -97.94053 6.2122524e-13 
       0.116      116    4143.0751     0.371408 -1.6463074e-12 -1.5473988e-12     57.10648     57.10648   -97.941209   -97.941209 6.9905116e-13 
       0.117      117    4143.0751   0.37033342 -1.3870393e-12 -1.2904889e-12     57.10648     57.10648   -97.941848   -97.941848 5.1320672e-13 
       0.118      118    4143.0751   0.36923042 -9.4277604e-13 -4.4150095e-13     57.10648     57.10648   -97.942501   -97.942501 4.6188638e-13 
       0.119      119    4143.0751   0.36813075 -6.9810433e-13 -5.3173807e-13     57.10648     57.10648   -97.943155   -97.943155 4.4670276e-13 
        0.12      120    4143.0751   0.36704628 -5.3988818e-13 -6.6931658e-13     57.10648     57.10648   -97.943805   -97.943805 5.532514e-13 
       0.121      121    4143.0751   0.36594165 -4.4967722e-13 -3.954515e-13     57.10648     57.10648   -97.944466   -97.944466 4.7309437e-13 
       0.122      122    4143.0751   0.36485405 -7.0931972e-13 -9.3839289e-13     57.10648     57.10648   -97.945112   -97.945112 7.3112425e-13 
       0.123      123    4143.0751   0.36383906 -6.8112148e-13 -1.3135084e-12     57.10648     57.10648   -97.945713   -97.945713 8.4887787e-13 
       0.124      124    4143.0751   0.36275867 -7.5060465e-13 -9.2293679e-13     57.10648     57.10648   -97.946357   -97.946357 5.7909492e-13 
       0.125      125    4143.0751   0.36167227 -8.4752716e-13 -1.3073885e-12     57.10648     57.10648   -97.947008   -97.947008 5.9497308e-13 
       0.126      126    4143.0751   0.36065554 -1.0711881e-12 -1.4276593e-12     57.10648     57.10648   -97.947616   -97.947616 6.0727147e-13 
       0.127      127    4143.0751   0.35960039 -1.0272155e-12 -1.2407196e-12     57.10648     57.10648   -97.948242   -97.948242 3.5463321e-13 
       0.128      128    4143.0751   0.35857707 -1.1621348e-12 -1.4436368e-12     57.10648     57.10648   -97.948849   -97.948849 3.9135696e-13 
       0.129      129    4143.0751   0.35755144 -9.0880114e-13 -1.2618613e-12     57.10648     57.10648   -97.949461   -97.949461 4.3501893e-13 
        0.13      130    4143.0751   0.35648969 -4.2846025e-13 -9.1255408e-13     57.10648     57.10648   -97.950097   -97.950097 3.9935456e-13 
       0.131      131    4143.0751   0.35546916 -6.9269102e-13 -9.0349831e-13     57.10648     57.10648   -97.950706   -97.950706 5.9344759e-13 
       0.132      132    4143.0751    0.3544727 -7.2618069e-13 -1.233025e-12     57.10648     57.10648   -97.951297   -97.951297 3.0189799e-13 
       0.133      133    4143.0751   0.35345297 -9.7679254e-13 -1.6578841e-12     57.10648     57.10648   -97.951902   -97.951902 3.2838792e-13 
       0.134      134    4143.0751   0.35242964 -1.0465359e-12 -1.694961e-12     57.10648     57.10648   -97.952514   -97.952514 6.6716448e-13 
       0.135      135    4143.0751   0.35143565 -8.6284998e-13 -1.315947e-12     57.10648     57.10648   -97.953109   -97.953109 6.9318104e-13 
       0.136      136    4143.0751    0.3504135 -1.0382532e-12 -1.2907901e-12     57.10648     57.10648   -97.953718   -97.953718 6.5086755e-13 
       0.137      137    4143.0751    0.3494354 -1.1771098e-12 -1.4398491e-12     57.10648     57.10648   -97.954298   -97.954298 7.8632329e-13 
       0.138      138    4143.0751     0.348469 -9.1221278e-13 -8.1224184e-13     57.10648     57.10648   -97.954872   -97.954872 6.6705147e-13 
       0.139      139    4143.0751   0.34743748 -5.9097597e-13 -7.4792757e-13     57.10648     57.10648   -97.955489   -97.955489 6.2243446e-13 
        0.14      140    4143.0751   0.34646052 -5.5328096e-13 -1.006966e-12     57.10648     57.10648   -97.956074   -97.956074 6.2140125e-13 
       0.141      141    4143.0751   0.34548506 -2.6602384e-13 -9.8496382e-13     57.10648     57.10648   -97.956654   -97.956654 4.9438873e-13 
       0.142      142    4143.0751   0.34449235 -3.2926677e-13 -1.0974098e-12     57.10648     57.10648   -97.957243   -97.957243 4.7789049e-13 
       0.143      143    4143.0751   0.34353243 -6.4933965e-13 -1.1666059e-12     57.10648     57.10648   -97.957814   -97.957814 5.016664e-13 
       0.144      144    4143.0751   0.34255289 -8.1220117e-13 -1.123709e-12     57.10648     57.10648   -97.958401   -97.958401 2.9329177e-13 
       0.145      145    4143.0751   0.34155884 -9.3619845e-13 -1.5159555e-12     57.10648     57.10648   -97.958995   -97.958995 2.3390819e-13 
       0.146      146    4143.0751   0.34060409 -9.7630972e-13 -1.9353264e-12     57.10648     57.10648   -97.959562   -97.959562 3.7790599e-13 
       0.147      147    4143.0751   0.33966417 -8.971615e-13 -1.1894947e-12     57.10648     57.10648    -97.96012    -97.96012 3.3343795e-13 
       0.148      148    4143.0751    0.3386798 -5.7188047e-13 -9.522527e-13     57.10648     57.10648   -97.960706   -97.960706 9.9151462e-14 
       0.149      149    4143.0751   0.33772387 -7.0414882e-13 -1.3502978e-12     57.10648     57.10648   -97.961279   -97.961279 1.550294e-13 
        0.15      150    4143.0751   0.33676956 -5.9929424e-13 -1.4031887e-12     57.10648     57.10648   -97.961848   -97.961848 1.8932678e-13 
       0.151      151    4143.0751    0.3357945 -5.0113476e-13 -1.2073854e-12     57.10648     57.10648   -97.962427   -97.962427 4.6382399e-14 
       0.152      152    4143.0751   0.33487207 -3.3082877e-13 -7.975386e-13     57.10648     57.10648   -97.962975   -97.962975 5.4601458e-14 
       0.153      153    4143.0751   0.33390912 -6.7587607e-14 -5.5840484e-13     57.10648     57.10648    -97.96355    -97.96355 4.9802249e-14 
       0.154      154    4143.0751    0.3329339 -2.9661754e-13 -7.0077096e-13     57.10648     57.10648   -97.964133   -97.964133 2.1183229e-13 
       0.155      155    4143.0751   0.33201108 -7.1176986e-13 -1.2014893e-12     57.10648     57.10648   -97.964683   -97.964683 1.8986527e-13 
       0.156      156    4143.0751   0.33106944 -2.3085489e-13 -1.1951928e-12     57.10648     57.10648   -97.965242   -97.965242 2.1174217e-13 
       0.157      157    4143.0751   0.33011982 7.1429458e-15 -1.5687467e-12     57.10648     57.10648   -97.965807   -97.965807 4.0120965e-13 
       0.158      158    4143.0751   0.32918452 2.1727925e-13 -1.8873836e-12     57.10648     57.10648   -97.966366   -97.966366 4.3632218e-13 
       0.159      159    4143.0751   0.32824045 -3.0374335e-13 -1.5375131e-12     57.10648     57.10648    -97.96693    -97.96693 2.4587021e-13 
        0.16      160    4143.0751      0.32729 -2.2460638e-13 -1.8292338e-12     57.10648     57.10648   -97.967496   -97.967496 2.8450691e-13 
       0.161      161    4143.0751   0.32638199  4.90206e-14 -1.4734427e-12     57.10648     57.10648   -97.968035   -97.968035 1.8176799e-13 
       0.162      162    4143.0751   0.32544905 2.5470425e-13 -9.1040715e-13     57.10648     57.10648    -97.96859    -97.96859 1.052758e-13 
       0.163      163    4143.0751   0.32449001 1.7386145e-13 -7.415659e-13     57.10648     57.10648   -97.969164   -97.969164 -2.6076933e-14 
       0.164      164    4143.0751    0.3235768 -2.5208661e-13 -8.0892175e-13     57.10648     57.10648   -97.969709   -97.969709 2.2057955e-13 
       0.165      165    4143.0751   0.32263718 -5.0399391e-13 -8.1559082e-13     57.10648     57.10648   -97.970268   -97.970268 8.1110668e-14 
       0.166      166    4143.0751   0.32171312 -3.3554866e-13 -8.2665866e-13     57.10648     57.10648   -97.970817   -97.970817 2.1826876e-13 
       0.167      167    4143.0751   0.32080282 -2.4034777e-13 -8.3438528e-13     57.10648     57.10648   -97.971359   -97.971359 9.6550187e-14 
       0.168      168    4143.0751   0.31985013 -1.064119e-13 -5.2548151e-13     57.10648     57.10648   -97.971929   -97.971929 2.0217126e-13 
       0.169      169    4143.0751   0.31892197 -5.383383e-13 -2.8515143e-13     57.10648     57.10648   -97.972483   -97.972483 6.3078247e-14 
        0.17      170    4143.0751   0.31801239 -4.4849072e-13 -1.7610715e-13     57.10648     57.10648   -97.973024   -97.973024 4.1046366e-14 
       0.171      171    4143.0751    0.3170868 2.5653244e-14 -2.3614755e-13     57.10648     57.10648   -97.973573   -97.973573 5.4388922e-14 
       0.172      172    4143.0751   0.31615765 -3.0078389e-13 -3.0325252e-13     57.10648     57.10648   -97.974127   -97.974127 5.9864928e-14 
       0.173      173    4143.0751   0.31524392 -3.7810864e-13 -3.4574446e-13     57.10648     57.10648   -97.974674   -97.974674 1.8538653e-13 
       0.174      174    4143.0751   0.31431038 -4.9444558e-13 -2.9345737e-13     57.10648     57.10648   -97.975231   -97.975231 4.2493764e-14 
       0.175      175    4143.0751   0.31339202 -6.7386995e-13 -4.8050136e-13     57.10648     57.10648   -97.975776   -97.975776 1.8748889e-13 
       0.176      176    4143.0751   0.31249739 -7.2905758e-13 -5.6523037e-13     57.10648     57.10648   -97.976308   -97.976308 1.0346026e-13 
       0.177      177    4143.0751   0.31155706 -9.3748548e-13 -4.6414306e-13     57.10648     57.10648   -97.976869   -97.976869 2.9539168e-13 
       0.178      178    4143.0751   0.31064138 -1.1811148e-12 -5.8866686e-13     57.10648     57.10648   -97.977417   -97.977417 3.5596945e-13 
       0.179      179    4143.0751   0.30973349 -1.2808222e-12 -7.9512674e-13     57.10648     57.10648   -97.977958   -97.977958 3.7004919e-13 
        0.18      180    4143.0751   0.30880747 -1.3963528e-12 -7.1766084e-13     57.10648     57.10648   -97.978508   -97.978508 3.8965891e-13 
       0.181      181    4143.0751   0.30791128 -9.5293724e-13 -5.6368371e-13     57.10648     57.10648   -97.979041   -97.979041 1.1393872e-13 
       0.182      182    4143.0751   0.30698946 -1.2464953e-12 -1.7703673e-13     57.10648     57.10648   -97.979591   -97.979591 1.8850777e-13 
       0.183      183    4143.0751   0.30605666 -1.3575914e-12 -4.7803868e-13     57.10648     57.10648   -97.980149   -97.980149 8.2199997e-14 
       0.184      184    4143.0751   0.30515115 -1.5406337e-12 -5.7679395e-13     57.10648     57.10648   -97.980688   -97.980688 7.941744e-14 
       0.185      185    4143.0751   0.30424614 -1.0635332e-12 -5.7348383e-13     57.10648     57.10648   -97.981225   -97.981225 -1.4632616e-14 
       0.186      186    4143.0751   0.30332295 -1.285117e-12 -5.604284e-13     57.10648     57.10648   -97.981775   -97.981775 -1.1098561e-14 
       0.187      187    4143.0751   0.30241147 -1.5757423e-12 -6.2078722e-13     57.10648     57.10648    -97.98232    -97.98232 1.7656067e-14 
       0.188      188    4143.0751   0.30150006 -1.7479992e-12 -6.6235417e-13     57.10648     57.10648   -97.982864   -97.982864 2.3645791e-13 
       0.189      189    4143.0751   0.30057507 -1.4966737e-12 -6.1666105e-13     57.10648     57.10648   -97.983414   -97.983414 1.6175108e-13 
        0.19      190    4143.0751   0.29968651 -1.5262587e-12 -5.94777e-13     57.10648     57.10648   -97.983942   -97.983942 9.0713435e-14 
       0.191      191    4143.0751   0.29877019 -1.3914155e-12 -7.5270778e-13     57.10648     57.10648   -97.984488   -97.984488 8.067367e-14 
       0.192      192    4143.0751   0.29784072 -1.5109546e-12 -1.1828261e-12     57.10648     57.10648   -97.985044   -97.985044 -3.6260825e-14 
       0.193      193    4143.0751   0.29694653 -1.0758862e-12 -8.3719409e-13     57.10648     57.10648   -97.985577   -97.985577 2.083946e-13 
       0.194      194    4143.0751   0.29602415 -1.0816088e-12 -2.9696462e-13     57.10648     57.10648   -97.986126   -97.986126 9.5617018e-14 
       0.195      195    4143.0751   0.29511286 -1.2632371e-12 -2.1426665e-13     57.10648     57.10648   -97.986667   -97.986667 3.2901316e-14 
       0.196      196    4143.0751   0.29421027 -1.2417409e-12 -6.3792664e-13     57.10648     57.10648   -97.987205   -97.987205 1.7984662e-13 
       0.197      197    4143.0751   0.29328407 -1.1670195e-12 -5.4232278e-13     57.10648     57.10648   -97.987759   -97.987759 2.2123176e-13 
       0.198      198    4143.0751   0.29236789 -1.3176095e-12 -6.3389678e-13     57.10648     57.10648   -97.988305   -97.988305 2.6360855e-13 
       0.199      199    4143.0751   0.29146704 -1.0447524e-12 -9.1770089e-13     57.10648     57.10648   -97.988841   -97.988841 1.7110108e-13 
         0.2      200    4143.0751    0.2905513 -1.2269177e-12 -7.0732276e-13     57.10648     57.10648   -97.989385   -97.989385 1.0357507e-13 
       0.201      201    4143.0751   0.28962839 -1.7428113e-12 -1.0488489e-12     57.10648     57.10648   -97.989936   -97.989936 1.7714857e-13 
       0.202      202    4143.0751   0.28872745 -1.7899149e-12 -1.1022586e-12     57.10648     57.10648   -97.990474   -97.990474 1.7987952e-13 
       0.203      203    4143.0751   0.28780326 -1.5067009e-12 -7.7849971e-13     57.10648     57.10648   -97.991025   -97.991025 3.2256693e-14 
       0.204      204    4143.0751   0.28689721 -1.5009426e-12 -8.9167186e-13     57.10648     57.10648   -97.991563   -97.991563 1.3357155e-13 
       0.205      205    4143.0751   0.28600362 -1.6328594e-12 -1.1484736e-12     57.10648     57.10648   -97.992095   -97.992095 -3.2297239e-15 
       0.206      206    4143.0751   0.28506899 -1.5546416e-12 -1.2060667e-12     57.10648     57.10648   -97.992653   -97.992653 2.535552e-13 
       0.207      207    4143.0751   0.28416221 -1.6891344e-12 -1.0554719e-12     57.10648     57.10648   -97.993195   -97.993195 9.9396511e-14 
       0.208      208    4143.0751   0.28325544 -1.0650384e-12 -5.701153e-13     57.10648     57.10648   -97.993735   -97.993735 1.5823492e-13 
       0.209      209    4143.0751   0.28233541 -7.9205254e-13 -6.3431508e-13     57.10648     57.10648   -97.994281   -97.994281 2.0285614e-13 
        0.21      210    4143.0751   0.28143254 -9.6718446e-13 -8.3613735e-13     57.10648     57.10648   -97.994819   -97.994819 3.2500435e-13 
       0.211      211    4143.0751   0.28051305 -1.1392216e-12 -7.4312339e-13     57.10648     57.10648   -97.995368   -97.995368 1.387373e-13 
       0.212      212    4143.0751   0.27958501 -9.9823388e-13 -5.9618297e-13     57.10648     57.10648   -97.995922   -97.995922 2.3933251e-13 
       0.213      213    4143.0751   0.27867783 -9.2680162e-13 -6.0172351e-13     57.10648     57.10648   -97.996462   -97.996462 1.6777094e-13 
       0.214      214    4143.0751   0.27777495 -1.0222202e-12 -4.9785036e-13     57.10648     57.10648   -97.996999   -97.996999 3.1815927e-14 
       0.215      215    4143.0751   0.27684579 -1.2421151e-12 -8.2037126e-13     57.10648     57.10648   -97.997552   -97.997552 1.8230551e-13 
       0.216      216    4143.0751   0.27593433 -1.0605617e-12 -1.2734474e-12     57.10648     57.10648   -97.998097   -97.998097 1.5001303e-13 
       0.217      217    4143.0751   0.27502102 -4.5343858e-13 -1.1707702e-12     57.10648     57.10648   -97.998642   -97.998642 -1.3938746e-13 
       0.218      218    4143.0751   0.27409522 -5.6266579e-13 -9.0601486e-13     57.10648     57.10648   -97.999192   -97.999192 -5.4221921e-14 
       0.219      219    4143.0751   0.27320072 -3.8687056e-13 -7.9379542e-13     57.10648     57.10648   -97.999724   -97.999724 -1.5507681e-14 
        0.22      220    4143.0751   0.27227551 -7.0184833e-13 -9.8529675e-13     57.10648     57.10648   -98.000276   -98.000276 -1.7180631e-13 
       0.221      221    4143.0751   0.27134558 -8.3495004e-13 -8.1876064e-13     57.10648     57.10648   -98.000832   -98.000832 -1.4420502e-14 
       0.222      222    4143.0751   0.27043958 -9.3910893e-13 -3.4283506e-13     57.10648     57.10648   -98.001372   -98.001372 -2.0634832e-14 
       0.223      223    4143.0751   0.26951711 -7.9118232e-13 -4.3799122e-14     57.10648     57.10648    -98.00192    -98.00192 1.4089687e-13 
       0.224      224    4143.0751   0.26860243 -8.6111369e-13 -9.6868059e-14     57.10648     57.10648   -98.002464   -98.002464 1.1883383e-13 
       0.225      225    4143.0751   0.26768643 -5.8989611e-13 -3.7866022e-13     57.10648     57.10648   -98.003011   -98.003011 4.6454643e-15 
       0.226      226    4143.0751    0.2667566 -3.3672516e-13 -2.2564024e-13     57.10648     57.10648   -98.003566   -98.003566 -4.3492632e-15 
       0.227      227    4143.0751   0.26583354 -2.3240837e-13 -4.5175674e-13     57.10648     57.10648   -98.004116   -98.004116 2.069522e-14 
       0.228      228    4143.0751   0.26492811 -5.6752029e-13 -6.5232705e-13     57.10648     57.10648   -98.004654   -98.004654 1.1640448e-13 
       0.229      229    4143.0751   0.26400519 -6.8462784e-13 -8.9299968e-13     57.10648     57.10648   -98.005204   -98.005204 3.0931234e-13 
        0.23      230    4143.0751   0.26307739 -3.1359082e-13 -1.0747256e-12     57.10648     57.10648   -98.005757   -98.005757 1.0635868e-13 
       0.231      231    4143.0751   0.26216321 -3.4912237e-13 -1.1314467e-12     57.10648     57.10648   -98.006303   -98.006303 1.2835987e-13 
       0.232      232    4143.0751   0.26122751 -8.6198635e-13 -1.0263211e-12     57.10648     57.10648    -98.00686    -98.00686 -1.6668411e-14 
       0.233      233    4143.0751   0.26031746 -9.955877e-13 -7.2865784e-13     57.10648     57.10648   -98.007401   -98.007401 2.4379817e-13 
       0.234      234    4143.0751   0.25940338 -2.5557214e-13 -9.0258971e-13     57.10648     57.10648   -98.007946   -98.007946 5.615652e-14 
       0.235      235    4143.0751   0.25845942 -5.122738e-14 -9.5968276e-13     57.10648     57.10648    -98.00851    -98.00851 2.1287274e-13 
       0.236      236    4143.0751   0.25754378 -2.5126325e-13 -9.7918727e-13     57.10648     57.10648   -98.009056   -98.009056 2.201486e-13 
       0.237      237    4143.0751   0.25662157 -4.2613193e-13 -1.0379705e-12     57.10648     57.10648   -98.009605   -98.009605 9.8477179e-15 
       0.238      238    4143.0751   0.25569311 -7.4544454e-13 -6.8791915e-13     57.10648     57.10648   -98.010157   -98.010157 1.2721995e-13 
       0.239      239    4143.0751   0.25477369 -8.4483741e-13 -6.0935403e-13     57.10648     57.10648   -98.010705   -98.010705 4.5956122e-14 
        0.24      240    4143.0751   0.25384355 -5.534877e-13 -7.020232e-13     57.10648     57.10648    -98.01126    -98.01126 2.2373798e-13 
       0.241      241    4143.0751   0.25290809 -4.238951e-13 -1.1333643e-12     57.10648     57.10648   -98.011818   -98.011818 5.7688675e-15 
       0.242      242    4143.0751   0.25199044 -3.4656634e-13 -9.6693299e-13     57.10648     57.10648   -98.012364   -98.012364 1.7763717e-13 
       0.243      243    4143.0751   0.25106997 -8.4863416e-13 -7.615309e-13     57.10648     57.10648   -98.012911   -98.012911 7.3513695e-14 
       0.244      244    4143.0751   0.25012673 -6.732147e-13 -8.6050847e-13     57.10648     57.10648   -98.013474   -98.013474 1.2216897e-13 
       0.245      245    4143.0751   0.24920406 -2.0291205e-13 -7.356147e-13     57.10648     57.10648   -98.014025   -98.014025 4.7554507e-14 
       0.246      246    4143.0751   0.24827066 3.949699e-14 -9.5660259e-13     57.10648     57.10648   -98.014581   -98.014581 -1.8118486e-14 
       0.247      247    4143.0751   0.24733764 -4.2601598e-13 -1.1552544e-12     57.10648     57.10648   -98.015136   -98.015136 2.3396566e-13 
       0.248      248    4143.0751   0.24642438 -1.1470431e-12 -5.6104108e-13     57.10648     57.10648   -98.015679   -98.015679 2.7734266e-13 
       0.249      249    4143.0751   0.24547869 -8.3756602e-13 8.2170863e-14     57.10648     57.10648   -98.016244   -98.016244 2.0622911e-13 
        0.25      250    4143.0751   0.24454487 -2.2975757e-13 -6.8960214e-14     57.10648     57.10648   -98.016801   -98.016801 2.7596939e-13 
       0.251      251    4143.0751   0.24362143 3.6162732e-14 -3.2156245e-13     57.10648     57.10648   -98.017351   -98.017351 7.1528817e-14 
       0.252      252    4143.0751   0.24268259 -6.5699705e-13 -2.3501136e-13     57.10648     57.10648   -98.017909   -98.017909 9.5836731e-14 
       0.253      253    4143.0751   0.24175313 -8.6050149e-13 -1.5313029e-13     57.10648     57.10648   -98.018463   -98.018463 1.3759024e-13 
       0.254      254    4143.0751    0.2408215 -5.7556344e-13 -2.4405713e-13     57.10648     57.10648   -98.019019   -98.019019 1.7815236e-15 
       0.255      255    4143.0751   0.23987891 -3.4918777e-13 -4.8729402e-13     57.10648     57.10648   -98.019582   -98.019582 2.3467472e-13 
       0.256      256    4143.0751   0.23894693 -5.7000191e-13 -6.4169653e-13     57.10648     57.10648   -98.020136   -98.020136 2.8736578e-14 
       0.257      257    4143.0751   0.23802623 -1.8933366e-13 -4.8742691e-13     57.10648     57.10648   -98.020684   -98.020684 2.4950492e-13 
       0.258      258    4143.0751   0.23707864 -1.6351698e-13 -2.1568115e-14     57.10648     57.10648   -98.021248   -98.021248 2.8211036e-13 
       0.259      259    4143.0751    0.2361386 -4.4271551e-13 -1.5805217e-13     57.10648     57.10648    -98.02181    -98.02181 3.2066471e-13 
        0.26      260    4143.0751   0.23520704 -2.0401089e-13 -6.1083981e-13     57.10648     57.10648   -98.022366   -98.022366 1.3973372e-13 
       0.261      261    4143.0751   0.23425724 3.4379748e-14 -5.8986518e-13     57.10648     57.10648   -98.022931   -98.022931 3.1447443e-13 
       0.262      262    4143.0751   0.23333392 6.0270596e-14 -1.0356785e-12     57.10648     57.10648    -98.02348    -98.02348 1.0247718e-13 
       0.263      263    4143.0751   0.23239434 -9.0956155e-13 -8.8613456e-13     57.10648     57.10648    -98.02404    -98.02404 1.6066407e-13 
       0.264      264    4143.0751   0.23144173 -1.3212297e-12 -7.4542744e-13     57.10648     57.10648   -98.024609   -98.024609 3.3918639e-13 
       0.265      265    4143.0751   0.23051279 -9.4947057e-13 -1.0797526e-12     57.10648     57.10648   -98.025163   -98.025163 4.2352389e-13 
       0.266      266    4143.0751   0.22957067 -4.7015337e-13 -1.3273277e-12     57.10648     57.10648   -98.025723   -98.025723 2.0558997e-13 
       0.267      267    4143.0751   0.22862754 -4.3474766e-13 -9.4193978e-13     57.10648     57.10648   -98.026284   -98.026284 2.8742905e-13 
       0.268      268    4143.0751   0.22768943 -3.9711521e-13 -8.6205497e-13     57.10648     57.10648   -98.026844   -98.026844 2.8184093e-13 
       0.269      269    4143.0751   0.22674282 -6.4133416e-14 -7.7675297e-13     57.10648     57.10648   -98.027409   -98.027409 3.4593384e-13 
        0.27      270    4143.0751   0.22579538 -4.0202296e-13 -1.0974769e-12     57.10648     57.10648   -98.027973   -98.027973 1.8185931e-13 
       0.271      271    4143.0751   0.22486481 -6.1491832e-13 -1.3496354e-12     57.10648     57.10648   -98.028527   -98.028527 3.583714e-13 
       0.272      272    4143.0751   0.22392091 -3.9113418e-13 -1.5389674e-12     57.10648     57.10648   -98.029089   -98.029089 1.7011174e-13 
       0.273      273    4143.0751   0.22296704 -3.7493866e-13 -1.2918975e-12     57.10648     57.10648   -98.029658   -98.029658 1.4051108e-13 
       0.274      274    4143.0751   0.22203359 -7.1244621e-13 -2.3313257e-13     57.10648     57.10648   -98.030215   -98.030215 2.2182096e-13 
       0.275      275    4143.0751   0.22107835 2.4640213e-15 -7.4751842e-14     57.10648     57.10648   -98.030784   -98.030784 2.3491992e-13 
       0.276      276    4143.0751   0.22013428 7.4713007e-13 -9.338481e-13     57.10648     57.10648   -98.031345   -98.031345 2.8506657e-13 
       0.277      277    4143.0751   0.21919815 6.209161e-13 -1.0541374e-12     57.10648     57.10648   -98.031903   -98.031903 2.0690583e-13 
       0.278      278    4143.0751   0.21823435 -1.8401629e-13 -4.3545584e-13     57.10648     57.10648   -98.032478   -98.032478 2.1069508e-13 
       0.279      279    4143.0751   0.21728884 -2.3260921e-13 -3.7581405e-14     57.10648     57.10648   -98.033042   -98.033042 8.2567759e-14 
        0.28      280    4143.0751   0.21634359 2.6556633e-14 -2.0508633e-13     57.10648     57.10648   -98.033605   -98.033605 2.0086602e-13 
       0.281      281    4143.0751   0.21539158 -2.5940121e-13 -5.3878799e-13     57.10648     57.10648   -98.034171   -98.034171 3.2322974e-13 
       0.282      282    4143.0751   0.21444812 -2.8934743e-13 -3.8676105e-13     57.10648     57.10648   -98.034733   -98.034733 2.9789011e-13 
       0.283      283    4143.0751   0.21349696 -3.4702616e-13 -3.460569e-13     57.10648     57.10648   -98.035301   -98.035301  2.08899e-13 
       0.284      284    4143.0751   0.21253632 -1.2556066e-13 -7.6904317e-13     57.10648     57.10648   -98.035874   -98.035874 4.0096715e-13 
       0.285      285    4143.0751   0.21158996 -6.7191183e-14 -1.1567956e-12     57.10648     57.10648   -98.036437   -98.036437 2.6729121e-13 
       0.286      286    4143.0751   0.21064771 -2.4074512e-13 -8.7819743e-13     57.10648     57.10648   -98.036998   -98.036998 1.0395576e-13 
       0.287      287    4143.0751   0.20968215 -2.5392036e-13 -7.8734147e-13     57.10648     57.10648   -98.037573   -98.037573 2.0321177e-13 
       0.288      288    4143.0751   0.20873364 -1.7662746e-13 -1.0695883e-12     57.10648     57.10648    -98.03814    -98.03814 2.4302766e-13 
       0.289      289    4143.0751   0.20778048 8.6575904e-14 -1.3235998e-12     57.10648     57.10648   -98.038708   -98.038708 2.4105219e-13 
        0.29      290    4143.0751   0.20682114 -5.2718721e-13 -1.2343064e-12     57.10648     57.10648   -98.039279   -98.039279 3.2203799e-13 
       0.291      291    4143.0751   0.20588551 -3.1945624e-13 -1.2804283e-12     57.10648     57.10648   -98.039835   -98.039835 2.3528098e-13 
       0.292      292    4143.0751   0.20492148 2.5938029e-13 -1.422707e-12     57.10648     57.10648    -98.04041    -98.04041 1.0959128e-13 
       0.293      293    4143.0751    0.2039569 1.540531e-13 -8.7685723e-13     57.10648     57.10648   -98.040986   -98.040986 3.4116995e-13 
       0.294      294    4143.0751   0.20300971 -5.4054886e-13 -7.8611901e-13     57.10648     57.10648    -98.04155    -98.04155 1.3666555e-13 
       0.295      295    4143.0751   0.20205246 -5.5302078e-13 -9.3931116e-13     57.10648     57.10648    -98.04212    -98.04212 1.3185803e-13 
       0.296      296    4143.0751   0.20109807 -5.2430337e-13 -1.1511814e-12     57.10648     57.10648   -98.042688   -98.042688 1.4999605e-13 
       0.297      297    4143.0751   0.20014182 -7.8466339e-13 -7.2822014e-13     57.10648     57.10648   -98.043259   -98.043259 1.0903649e-13 
       0.298      298    4143.0751   0.19917544 -7.134883e-13 -1.0899061e-12     57.10648     57.10648   -98.043835   -98.043835 3.0450054e-13 
       0.299      299    4143.0751   0.19821337 -5.0760061e-13 -1.1211841e-12     57.10648     57.10648   -98.044408   -98.044408 3.1999478e-13 
         0.3      300    4143.0751   0.19726786 -7.6784388e-13 -7.1060285e-13     57.10648     57.10648   -98.044971   -98.044971 2.0545606e-13 
       0.301      301    4143.0751   0.19630412 -8.815233e-13 -8.7419225e-13     57.10648     57.10648   -98.045545   -98.045545 1.8924417e-13 
       0.302      302    4143.0751   0.19533978 -8.0546467e-13 -1.1973732e-12     57.10648     57.10648    -98.04612    -98.04612 3.3451283e-13 
       0.303      303    4143.0751   0.19438603 -3.6590954e-13 -1.018239e-12     57.10648     57.10648   -98.046689   -98.046689 2.2121635e-13 
       0.304      304    4143.0751   0.19341585 -3.2300727e-13 -9.5417864e-13     57.10648     57.10648   -98.047267   -98.047267 2.250281e-13 
       0.305      305    4143.0751   0.19246709 -3.7578773e-13 -8.5527724e-13     57.10648     57.10648   -98.047831   -98.047831 2.6768619e-13 
       0.306      306    4143.0751   0.19150781 -3.4573543e-13 -5.5521356e-13     57.10648     57.10648   -98.048403   -98.048403 9.7184276e-14 
       0.307      307    4143.0751   0.19053024 -7.3138588e-13 -6.5468245e-13     57.10648     57.10648   -98.048986   -98.048986 1.9632987e-13 
       0.308      308    4143.0751    0.1895736 -7.2648677e-13 -1.1776245e-12     57.10648     57.10648   -98.049557   -98.049557 2.8794604e-13 
       0.309      309    4143.0751   0.18861006 -3.7636304e-13 -1.4164023e-12     57.10648     57.10648    -98.05013    -98.05013 1.4185215e-13 
        0.31      310    4143.0751    0.1876448 -8.879054e-14 -1.22114e-12     57.10648     57.10648   -98.050704   -98.050704 2.0657871e-13 
       0.311      311    4143.0751   0.18668469 -6.0176378e-13 -8.125706e-13     57.10648     57.10648   -98.051277   -98.051277 2.9845088e-13 
       0.312      312    4143.0751   0.18571686 -6.3593746e-13 -9.4431659e-13     57.10648     57.10648   -98.051855   -98.051855 1.1694424e-13 
       0.313      313    4143.0751   0.18474439 -1.1562293e-13 -9.6323333e-13     57.10648     57.10648   -98.052434   -98.052434 2.1601911e-13 
       0.314      314    4143.0751   0.18378822 -2.3923309e-13 -1.2343921e-12     57.10648     57.10648   -98.053003   -98.053003 3.1717801e-13 
       0.315      315    4143.0751   0.18282817 -7.8566975e-13 -1.4764323e-12     57.10648     57.10648   -98.053574   -98.053574 2.9171148e-13 
       0.316      316    4143.0751   0.18185278 -8.1074109e-13 -1.783781e-12     57.10648     57.10648   -98.054156   -98.054156 1.8420091e-13 
       0.317      317    4143.0751   0.18089184 -6.8962719e-13 -1.7186598e-12     57.10648     57.10648    -98.05473    -98.05473 4.248126e-13 
       0.318      318    4143.0751   0.17991715 -5.7182798e-13 -1.2304911e-12     57.10648     57.10648    -98.05531    -98.05531 4.2647567e-13 
       0.319      319    4143.0751   0.17895043 -9.3069803e-13 -5.1147465e-13     57.10648     57.10648   -98.055885   -98.055885 3.7555589e-13 
        0.32      320    4143.0751   0.17799406 -1.5310838e-12 -1.861084e-13     57.10648     57.10648   -98.056455   -98.056455 1.6941794e-13 
       0.321      321    4143.0751   0.17701259 -1.7024557e-12 2.2172512e-14     57.10648     57.10648   -98.057041   -98.057041 3.5544243e-13 
       0.322      322    4143.0751   0.17604558 -1.6267595e-12 -2.893142e-14     57.10648     57.10648   -98.057618   -98.057618 4.0714187e-13 
       0.323      323    4143.0751   0.17508126 -1.390658e-12 -2.8326192e-13     57.10648     57.10648   -98.058192   -98.058192 2.7962539e-13 
       0.324      324    4143.0751   0.17410863 -1.0554576e-12 -3.3217075e-13     57.10648     57.10648    -98.05877    -98.05877 -8.921587e-15 
       0.325      325    4143.0751   0.17314191 -1.2059596e-12 -5.5895819e-13     57.10648     57.10648   -98.059346   -98.059346 1.5130538e-13 
       0.326      326    4143.0751   0.17216992 -1.188461e-12 -6.3393753e-13     57.10648     57.10648   -98.059926   -98.059926 1.4184006e-13 
       0.327      327    4143.0751   0.17119276 -1.008342e-12 -6.9915583e-13     57.10648     57.10648   -98.060509   -98.060509 2.836004e-13 
       0.328      328    4143.0751   0.17022507 -8.9284806e-13 -9.127893e-13     57.10648     57.10648   -98.061085   -98.061085 1.3266596e-13 
       0.329      329    4143.0751   0.16926145 -1.3975515e-12 -7.6379407e-13     57.10648     57.10648   -98.061659   -98.061659 3.7195634e-13 
        0.33      330    4143.0751   0.16827979 -1.7366267e-12 -1.1652192e-12     57.10648     57.10648   -98.062244   -98.062244 2.9437862e-13 
       0.331      331    4143.0751   0.16731033 -1.5914959e-12 -1.1014904e-12     57.10648     57.10648   -98.062822   -98.062822 1.9157263e-13 
       0.332      332    4143.0751   0.16633918 -1.4254572e-12 -7.6715786e-13     57.10648     57.10648   -98.063401   -98.063401 3.535785e-13 
       0.333      333    4143.0751   0.16535956 -1.5844106e-12 -7.3514212e-13     57.10648     57.10648   -98.063984   -98.063984 1.1799454e-13 
       0.334      334    4143.0751   0.16439841 -1.3257193e-12 -6.3005767e-13     57.10648     57.10648   -98.064556   -98.064556 1.5057921e-13 
       0.335      335    4143.0751   0.16341627 -1.09715e-12 -7.7656536e-13     57.10648     57.10648   -98.065142   -98.065142 4.0060162e-13 
       0.336      336    4143.0751   0.16243621 -1.1944681e-12 -1.2702011e-12     57.10648     57.10648   -98.065727   -98.065727 2.6481043e-13 
       0.337      337    4143.0751   0.16147074 -1.3637861e-12 -1.3468654e-12     57.10648     57.10648   -98.066302   -98.066302 3.1776624e-13 
       0.338      338    4143.0751   0.16049318 -1.2005958e-12 -1.059686e-12     57.10648     57.10648   -98.066884   -98.066884  3.10036e-13 
       0.339      339    4143.0751   0.15952138 -1.1595297e-12 -1.7292945e-12     57.10648     57.10648   -98.067462   -98.067462 1.8964791e-13 
        0.34      340    4143.0751   0.15854636 -1.2478404e-12 -2.1053627e-12     57.10648     57.10648   -98.068044   -98.068044 2.7636977e-13 
       0.341      341    4143.0751   0.15756207 -1.211205e-12 -1.6530522e-12     57.10648     57.10648   -98.068631   -98.068631 1.7502981e-13 
       0.342      342    4143.0751   0.15658445 -1.1775536e-12 -1.0107811e-12     57.10648     57.10648   -98.069213   -98.069213 2.0286027e-13 
       0.343      343    4143.0751   0.15561824 -1.3019352e-12 -8.5876177e-13     57.10648     57.10648   -98.069788   -98.069788 2.9287628e-13 
       0.344      344    4143.0751   0.15463681 -1.9360481e-12 -4.9507802e-13     57.10648     57.10648   -98.070373   -98.070373 1.948644e-13 
       0.345      345    4143.0751   0.15365445 -1.9237938e-12 -3.4568957e-13     57.10648     57.10648   -98.070959   -98.070959 1.7328492e-13 
       0.346      346    4143.0751   0.15268306 -1.4162353e-12 -6.2931757e-13     57.10648     57.10648   -98.071538   -98.071538 1.6273276e-13 
       0.347      347    4143.0751   0.15169906 -7.8406859e-13 -1.2449865e-12     57.10648     57.10648   -98.072124   -98.072124 2.8158121e-13 
       0.348      348    4143.0751   0.15073645 -8.6392809e-13 -9.0664749e-13     57.10648     57.10648   -98.072697   -98.072697 2.273368e-13 
       0.349      349    4143.0751   0.14978032 -1.1133033e-12 -1.285198e-12     57.10648     57.10648   -98.073267   -98.073267 2.351122e-13 
        0.35      350    4143.0751   0.14884092 -1.5597916e-12 -1.5559926e-12     57.10648     57.10648   -98.073827   -98.073827 1.990199e-13 
       0.351      351    4143.0751   0.14797671 -1.2303634e-12 -2.2213275e-12     57.10648     57.10648   -98.074343   -98.074343 2.5988851e-13 
       0.352      352    4143.0751   0.14720178 -8.3413389e-13 -2.0144326e-12     57.10648     57.10648   -98.074804   -98.074804 1.9414908e-13 
       0.353      353    4143.0751    0.1465717 -1.1812519e-12 -1.8420395e-12     57.10648     57.10648   -98.075179   -98.075179 1.4447638e-13 
       0.354      354    4143.0751   0.14611165 -9.7315551e-13 -1.531768e-12     57.10648     57.10648   -98.075453   -98.075453 -3.2620561e-14 
       0.355      355    4143.0751   0.14580186 -7.049712e-13 -1.0911775e-12     57.10648     57.10648   -98.075638   -98.075638 1.1973193e-13 
       0.356      356    4143.0751   0.14560731 -5.9620538e-13 -1.343433e-12     57.10648     57.10648   -98.075754   -98.075754 -2.5551018e-14 
       0.357      357    4143.0751   0.14547567 -7.418967e-13 -1.4589901e-12     57.10648     57.10648   -98.075832   -98.075832 -6.4469748e-14 
Loop time of 30.2051 on 64 procs for 357 steps with 360800 atoms

90.9% CPU use with 64 MPI tasks x 1 OpenMP threads

Minimization stats:
  Stopping criterion = energy tolerance
  Energy initial, next-to-last, final = 
     -1486645.77951318  -1486647.82549146  -1486647.82549146
  Force two-norm initial, final = 7.1080974 5.2089099e-05
  Force max component initial, final = 0.19826945 3.8819421e-07
  Final line search alpha, max atom move = 1.0000000 3.8819421e-07
  Iterations, force evaluations = 357 714

MPI task timing breakdown:
Section |  min time  |  avg time  |  max time  |%varavg| %total
---------------------------------------------------------------
Pair    | 2.3333     | 6.8785     | 15.096     | 203.6 | 22.77
Neigh   | 0          | 0          | 0          |   0.0 |  0.00
Comm    | 0.02756    | 2.598      | 7.8213     | 220.6 |  8.60
Output  | 1.2254     | 1.3055     | 1.3921     |   3.5 |  4.32
Modify  | 0          | 0          | 0          |   0.0 |  0.00
Other   |            | 19.42      |            |       | 64.30

Nlocal:        5637.50 ave       18400 max           0 min
Histogram: 44 0 0 0 0 0 0 0 1 19
Nghost:        5643.81 ave       18428 max           0 min
Histogram: 43 1 0 0 0 0 0 1 1 18
Neighs:         0.00000 ave           0 max           0 min
Histogram: 64 0 0 0 0 0 0 0 0 0
FullNghs:      944975.0 ave  3.0912e+06 max           0 min
Histogram: 44 0 0 0 0 0 0 0 1 19

Total # of neighbors = 60478400
Ave neighs/atom = 167.62306
Neighbor list builds = 0
Dangerous builds = 0
Setting up Verlet run ...
  Unit style    : metal
  Current step  : 357
  Time step     : 0.001
ERROR: Thermo keyword in variable requires thermo to use/init temp (../thermo.cpp:1155)
Last command: run 		1
--------------------------------------------------------------------------
Primary job  terminated normally, but 1 process returned
a non-zero exit code. Per user-direction, the job has been aborted.
--------------------------------------------------------------------------
--------------------------------------------------------------------------
mpirun detected that one or more processes exited with non-zero status, thus causing
the job to be terminated. The first process to do so was:

  Process name: [[45558,1],22]
  Exit code:    1
--------------------------------------------------------------------------
