LAMMPS (14 Dec 2021)
Reading data file ...
  orthogonal box = (0 0 0) to (5427.9709 57.10648 57.10648)
  64 by 1 by 1 MPI processor grid
  reading atoms ...
  720800 atoms
  read_data CPU = 1.516 seconds
800 atoms in group d1
800 atoms in group d2
800 atoms in group d3
800 atoms in group d4
800 atoms in group d5
800 atoms in group d6
800 atoms in group d7
800 atoms in group d8
800 atoms in group d9
800 atoms in group d10
800 atoms in group d11
800 atoms in group d12
800 atoms in group d13
800 atoms in group d14
800 atoms in group d15
800 atoms in group d16
800 atoms in group d17
800 atoms in group d18
800 atoms in group d19
800 atoms in group d20
800 atoms in group d21
800 atoms in group d22
800 atoms in group d23
800 atoms in group d24
800 atoms in group d25
800 atoms in group d26
800 atoms in group d27
800 atoms in group d28
800 atoms in group d29
800 atoms in group d30
800 atoms in group d31
WARNING: Using 'neigh_modify every 1 delay 0 check yes' setting during minimization (../min.cpp:187)
Neighbor list info ...
  update every 1 steps, delay 0 steps, check yes
  max neighbors/atom: 2000, page size: 100000
  master list distance cutoff = 7.6
  ghost atom cutoff = 7.6
  binsize = 3.8, bins = 1429 16 16
  1 neighbor lists, perpetual/occasional/extra = 1 0 0
  (1) pair eam/alloy, perpetual
      attributes: half, newton on
      pair build: half/bin/atomonly/newton
      stencil: half/bin/3d
      bin: standard
Setting up cg style minimization ...
  Unit style    : metal
  Current step  : 0
Per MPI rank memory allocation (min/avg/max) = 4.355 | 12.11 | 20.82 Mbytes
Step Temp E_pair E_mol TotEng Press 
       0            0   -2970722.4            0   -2970722.4   -39.963143 
       1            0   -2970724.3            0   -2970724.3   -46.892508 
       2            0   -2970724.4            0   -2970724.4   -48.396528 
       3            0   -2970724.5            0   -2970724.5   -47.831632 
       4            0   -2970724.5            0   -2970724.5   -48.159814 
       5            0   -2970724.5            0   -2970724.5   -48.628927 
       6            0   -2970724.5            0   -2970724.5    -48.79452 
       7            0   -2970724.5            0   -2970724.5   -48.875009 
       8            0   -2970724.5            0   -2970724.5    -48.94165 
       9            0   -2970724.5            0   -2970724.5   -49.026661 
      10            0   -2970724.5            0   -2970724.5   -49.074719 
      11            0   -2970724.5            0   -2970724.5   -49.107905 
      12            0   -2970724.5            0   -2970724.5    -49.13744 
      13            0   -2970724.5            0   -2970724.5   -49.171243 
      14            0   -2970724.5            0   -2970724.5   -49.194761 
      15            0   -2970724.5            0   -2970724.5   -49.212082 
      16            0   -2970724.5            0   -2970724.5   -49.228956 
      17            0   -2970724.5            0   -2970724.5   -49.246991 
      18            0   -2970724.5            0   -2970724.5   -49.260749 
      19            0   -2970724.5            0   -2970724.5   -49.271578 
      20            0   -2970724.5            0   -2970724.5   -49.282489 
      21            0   -2970724.5            0   -2970724.5   -49.293699 
      22            0   -2970724.5            0   -2970724.5    -49.30276 
      23            0   -2970724.5            0   -2970724.5   -49.310044 
      24            0   -2970724.5            0   -2970724.5    -49.31655 
      25            0   -2970724.5            0   -2970724.5   -49.322459 
      26            0   -2970724.5            0   -2970724.5   -49.328792 
      27            0   -2970724.5            0   -2970724.5   -49.334748 
      28            0   -2970724.5            0   -2970724.5   -49.339502 
      29            0   -2970724.5            0   -2970724.5    -49.34382 
      30            0   -2970724.5            0   -2970724.5   -49.348754 
      31            0   -2970724.5            0   -2970724.5   -49.353459 
      32            0   -2970724.5            0   -2970724.5   -49.357238 
      33            0   -2970724.5            0   -2970724.5   -49.360357 
      34            0   -2970724.5            0   -2970724.5   -49.364429 
      35            0   -2970724.5            0   -2970724.5   -49.368253 
      36            0   -2970724.5            0   -2970724.5   -49.371262 
      37            0   -2970724.5            0   -2970724.5   -49.374016 
      38            0   -2970724.5            0   -2970724.5    -49.37715 
      39            0   -2970724.5            0   -2970724.5    -49.37715 
Loop time of 6.65622 on 64 procs for 39 steps with 720800 atoms

99.9% CPU use with 64 MPI tasks x no OpenMP threads

Minimization stats:
  Stopping criterion = linesearch alpha is zero
  Energy initial, next-to-last, final = 
      -2970722.4157376  -2970724.46175216  -2970724.46175216
  Force two-norm initial, final = 7.1080974 0.0013972001
  Force max component initial, final = 0.19826945 2.0050408e-05
  Final line search alpha, max atom move = 0.00390625 7.8321904e-08
  Iterations, force evaluations = 39 93

MPI task timing breakdown:
Section |  min time  |  avg time  |  max time  |%varavg| %total
---------------------------------------------------------------
Pair    | 4.889e-05  | 2.9883     | 6.275      | 176.0 | 44.89
Neigh   | 0          | 0          | 0          |   0.0 |  0.00
Comm    | 3.1766e-05 | 0.16635    | 3.4079     | 143.0 |  2.50
Output  | 0.0062933  | 0.0065686  | 0.0076974  |   0.3 |  0.10
Modify  | 0          | 0          | 0          |   0.0 |  0.00
Other   |            | 3.495      |            |       | 52.51

Nlocal:        11262.5 ave       24000 max           0 min
Histogram: 32 2 0 0 0 0 0 0 0 30
Nghost:          10417 ave       22560 max           0 min
Histogram: 32 0 2 0 0 0 0 0 0 30
Neighs:         944988 ave 2.01662e+06 max           0 min
Histogram: 32 2 0 0 0 0 0 0 0 30

Total # of neighbors = 60479200
Ave neighs/atom = 83.90566
Neighbor list builds = 0
Dangerous builds = 0
WARNING: Using 'neigh_modify every 1 delay 0 check yes' setting during minimization (../min.cpp:187)
Setting up cg style minimization ...
  Unit style    : metal
  Current step  : 39
WARNING: Energy due to 3 extra global DOFs will be included in minimizer energies
Per MPI rank memory allocation (min/avg/max) = 4.355 | 12.11 | 20.82 Mbytes
Step Temp E_pair E_mol TotEng Press Volume 
      39            0   -2970724.5            0   -2970724.5    -49.37715     17701428 
      40            0   -2970724.5            0   -2970724.5    18.969652     17699992 
      41            0   -2970724.5            0   -2970724.5   0.67578574     17700376 
      42            0   -2970724.5            0   -2970724.5   -0.5677604     17700402 
      43            0   -2970724.5            0   -2970724.5  0.014475399     17700390 
      44            0   -2970724.5            0   -2970724.5 -0.0060778098     17700390 
      45            0   -2970724.5            0   -2970724.5  -0.00607781     17700390 
Loop time of 4.73521 on 64 procs for 6 steps with 720800 atoms

99.9% CPU use with 64 MPI tasks x no OpenMP threads

Minimization stats:
  Stopping criterion = linesearch alpha is zero
  Energy initial, next-to-last, final = 
     -2970724.46175217  -2970724.52230952  -2970724.52230952
  Force two-norm initial, final = 1162.6243 0.15599367
  Force max component initial, final = 822.0822 0.109416
  Final line search alpha, max atom move = 2.6240178e-07 2.8710952e-08
  Iterations, force evaluations = 6 47

MPI task timing breakdown:
Section |  min time  |  avg time  |  max time  |%varavg| %total
---------------------------------------------------------------
Pair    | 2.2416e-05 | 1.6064     | 3.2966     | 127.1 | 33.93
Neigh   | 0.00017335 | 0.58374    | 1.2684     |  80.0 | 12.33
Comm    | 0.00040716 | 0.087553   | 1.7905     | 102.5 |  1.85
Output  | 0.00063167 | 0.00065214 | 0.00077098 |   0.0 |  0.01
Modify  | 0          | 0          | 0          |   0.0 |  0.00
Other   |            | 2.457      |            |       | 51.88

Nlocal:        11262.5 ave       24000 max           0 min
Histogram: 32 2 0 0 0 0 0 0 0 30
Nghost:          10417 ave       22560 max           0 min
Histogram: 32 0 2 0 0 0 0 0 0 30
Neighs:         944988 ave 2.01758e+06 max           0 min
Histogram: 32 2 0 0 0 0 0 0 0 30

Total # of neighbors = 60479200
Ave neighs/atom = 83.90566
Neighbor list builds = 20
Dangerous builds = 19
WARNING: Using 'neigh_modify every 1 delay 0 check yes' setting during minimization (../min.cpp:187)
Setting up cg style minimization ...
  Unit style    : metal
  Current step  : 45
Per MPI rank memory allocation (min/avg/max) = 4.355 | 12.12 | 20.82 Mbytes
Step Temp E_pair E_mol TotEng Press 
      45            0   -2970724.5            0   -2970724.5 -0.0060778099 
      46            0   -2970724.5            0   -2970724.5 -0.018793648 
      47            0   -2970724.5            0   -2970724.5 -0.023370375 
      48            0   -2970724.5            0   -2970724.5 -0.025380438 
      49            0   -2970724.5            0   -2970724.5 -0.026941437 
      50            0   -2970724.5            0   -2970724.5 -0.028473958 
      51            0   -2970724.5            0   -2970724.5 -0.028473958 
Loop time of 1.75628 on 64 procs for 6 steps with 720800 atoms

99.9% CPU use with 64 MPI tasks x no OpenMP threads

Minimization stats:
  Stopping criterion = linesearch alpha is zero
  Energy initial, next-to-last, final = 
     -2970724.52230952  -2970724.52231508  -2970724.52231508
  Force two-norm initial, final = 0.0093997097 0.00086076019
  Force max component initial, final = 0.00024950533 1.9968277e-05
  Final line search alpha, max atom move = 0.015625 3.1200432e-07
  Iterations, force evaluations = 6 23

MPI task timing breakdown:
Section |  min time  |  avg time  |  max time  |%varavg| %total
---------------------------------------------------------------
Pair    | 1.0867e-05 | 0.78074    | 1.6509     |  90.0 | 44.45
Neigh   | 0          | 0          | 0          |   0.0 |  0.00
Comm    | 7.074e-06  | 0.045807   | 0.90181    |  71.0 |  2.61
Output  | 0.00075014 | 0.00076944 | 0.00087626 |   0.0 |  0.04
Modify  | 0          | 0          | 0          |   0.0 |  0.00
Other   |            | 0.929      |            |       | 52.89

Nlocal:        11262.5 ave       24000 max           0 min
Histogram: 32 2 0 0 0 0 0 0 0 30
Nghost:          10417 ave       22560 max           0 min
Histogram: 32 0 2 0 0 0 0 0 0 30
Neighs:         944988 ave 2.01758e+06 max           0 min
Histogram: 32 2 0 0 0 0 0 0 0 30

Total # of neighbors = 60479200
Ave neighs/atom = 83.90566
Neighbor list builds = 0
Dangerous builds = 0
WARNING: One or more atoms are time integrated more than once (../modify.cpp:281)
Setting up Verlet run ...
  Unit style    : metal
  Current step  : 51
  Time step     : 0.001
1428.26082619725 1513.93008081338 1599.59732989982 1685.26457900425 1770.93182810868 1856.59907721312 1942.26632631755 2027.93357542198 2113.60082452641 2199.26807363084 2284.93532273527 2370.60257183971 2456.26982094414 2541.93707004857 2627.604319153 2713.27156825745 2798.93881736189 2884.6060664663 2970.27331557073 3055.94056467516 3141.6078137796 3227.27506288403 3312.94231198845 3398.60956109288 3484.27681019732 3569.94405930175 3655.61130840618 3741.27855751062 3826.94580661504 3912.61305570149 3998.28231031762
Per MPI rank memory allocation (min/avg/max) = 3.605 | 10.66 | 18.57 Mbytes
Step Temp E_pair E_mol TotEng Press 
      51            0   -2970724.5            0   -2970724.5 -0.028473958 
1428.26126601967 1513.93008081344 1599.59732989982 1685.26457900425 1770.93182810868 1856.59907721312 1942.26632631755 2027.93357542198 2113.60082452641 2199.26807363084 2284.93532273527 2370.60257183971 2456.26982094414 2541.93707004857 2627.604319153 2713.27156825745 2798.93881736189 2884.6060664663 2970.27331557073 3055.94056467516 3141.6078137796 3227.27506288403 3312.94231198845 3398.60956109288 3484.27681019732 3569.94405930175 3655.61130840618 3741.27855751062 3826.94580661504 3912.61305570142 3998.28231031745
      52 0.00099277944   -2970724.5            0   -2970724.4   0.12234976 
1428.26170583879 1513.93008081363 1599.59732989982 1685.26457900425 1770.93182810868 1856.59907721312 1942.26632631755 2027.93357542198 2113.60082452641 2199.26807363084 2284.93532273527 2370.60257183971 2456.26982094414 2541.93707004857 2627.604319153 2713.27156825745 2798.93881736189 2884.60606646629 2970.27331557073 3055.94056467516 3141.6078137796 3227.27506288403 3312.94231198845 3398.60956109288 3484.27681019732 3569.94405930175 3655.61130840618 3741.27855751062 3826.94580661504 3912.61305570124 3998.28231031695
      53 0.00099160586   -2970724.5            0   -2970724.4   0.26753948 
1428.26214565132 1513.93008081394 1599.59732989982 1685.26457900425 1770.93182810868 1856.59907721312 1942.26632631755 2027.93357542198 2113.60082452641 2199.26807363084 2284.93532273527 2370.60257183971 2456.26982094414 2541.93707004857 2627.604319153 2713.27156825745 2798.93881736189 2884.60606646629 2970.27331557073 3055.94056467516 3141.6078137796 3227.27506288403 3312.94231198845 3398.60956109288 3484.27681019732 3569.94405930175 3655.61130840618 3741.27855751062 3826.94580661504 3912.61305570093 3998.28231031611
      54 0.00099044779   -2970724.5            0   -2970724.4   0.41268187 
1428.26258545394 1513.93008081438 1599.59732989982 1685.26457900425 1770.93182810868 1856.59907721312 1942.26632631755 2027.93357542198 2113.60082452641 2199.26807363084 2284.93532273527 2370.60257183971 2456.26982094414 2541.93707004857 2627.604319153 2713.27156825745 2798.93881736189 2884.60606646629 2970.27331557073 3055.94056467516 3141.60781377959 3227.27506288403 3312.94231198845 3398.60956109288 3484.27681019732 3569.94405930175 3655.61130840618 3741.27855751062 3826.94580661504 3912.61305570048 3998.28231031494
      55 0.00098933418   -2970724.5            0   -2970724.4    0.5577754 
1428.26302524337 1513.93008081495 1599.59732989982 1685.26457900425 1770.93182810868 1856.59907721312 1942.26632631755 2027.93357542198 2113.60082452641 2199.26807363084 2284.93532273527 2370.60257183971 2456.26982094414 2541.93707004857 2627.604319153 2713.27156825745 2798.93881736189 2884.6060664663 2970.27331557073 3055.94056467516 3141.60781377959 3227.27506288402 3312.94231198845 3398.60956109288 3484.27681019732 3569.94405930175 3655.61130840618 3741.27855751062 3826.94580661505 3912.61305569991 3998.28231031344
      56 0.00098830484   -2970724.5            0   -2970724.4   0.70281881 
1428.26346501631 1513.93008081565 1599.59732989982 1685.26457900425 1770.93182810868 1856.59907721311 1942.26632631755 2027.93357542198 2113.60082452641 2199.26807363084 2284.93532273527 2370.60257183971 2456.26982094414 2541.93707004857 2627.604319153 2713.27156825745 2798.93881736189 2884.6060664663 2970.27331557073 3055.94056467516 3141.60781377959 3227.27506288403 3312.94231198845 3398.60956109288 3484.27681019732 3569.94405930175 3655.61130840618 3741.27855751062 3826.94580661505 3912.61305569922 3998.28231031161
      57 0.00098741019   -2970724.5            0   -2970724.4   0.84781087 
1428.26390476945 1513.93008081647 1599.59732989982 1685.26457900425 1770.93182810868 1856.59907721312 1942.26632631755 2027.93357542198 2113.60082452641 2199.26807363084 2284.93532273527 2370.60257183971 2456.26982094414 2541.93707004857 2627.604319153 2713.27156825745 2798.93881736189 2884.6060664663 2970.27331557073 3055.94056467516 3141.60781377959 3227.27506288403 3312.94231198845 3398.60956109288 3484.27681019732 3569.94405930175 3655.61130840618 3741.27855751062 3826.94580661505 3912.6130556984 3998.28231030944
      58 0.00098671085   -2970724.5            0   -2970724.4   0.99275065 
1428.26434449951 1513.93008081742 1599.59732989982 1685.26457900425 1770.93182810869 1856.59907721312 1942.26632631755 2027.93357542198 2113.60082452641 2199.26807363084 2284.93532273527 2370.60257183971 2456.26982094414 2541.93707004857 2627.604319153 2713.27156825745 2798.93881736189 2884.6060664663 2970.27331557073 3055.94056467516 3141.60781377959 3227.27506288402 3312.94231198845 3398.60956109288 3484.27681019732 3569.94405930175 3655.61130840618 3741.27855751062 3826.94580661504 3912.61305569744 3998.28231030695
      59 0.00098627719   -2970724.5            0   -2970724.4    1.1376375 
1428.26478420317 1513.9300808185 1599.59732989982 1685.26457900425 1770.93182810869 1856.59907721312 1942.26632631755 2027.93357542198 2113.60082452641 2199.26807363084 2284.93532273527 2370.60257183971 2456.26982094414 2541.93707004857 2627.604319153 2713.27156825745 2798.93881736189 2884.6060664663 2970.27331557073 3055.94056467516 3141.60781377959 3227.27506288402 3312.94231198845 3398.60956109288 3484.27681019732 3569.94405930175 3655.61130840618 3741.27855751062 3826.94580661504 3912.61305569636 3998.28231030415
      60 0.00098618882   -2970724.5            0   -2970724.4    1.2824708 
1428.26522387714 1513.93008081971 1599.59732989982 1685.26457900425 1770.93182810868 1856.59907721312 1942.26632631755 2027.93357542198 2113.60082452641 2199.26807363084 2284.93532273527 2370.60257183971 2456.26982094414 2541.93707004857 2627.604319153 2713.27156825745 2798.93881736189 2884.6060664663 2970.27331557073 3055.94056467516 3141.60781377959 3227.27506288402 3312.94231198845 3398.60956109288 3484.27681019732 3569.94405930175 3655.61130840618 3741.27855751062 3826.94580661504 3912.61305569516 3998.28231030104
      61 0.00098653399   -2970724.5            0   -2970724.4    1.4272503 
1428.26566351813 1513.93008082104 1599.59732989982 1685.26457900425 1770.93182810869 1856.59907721312 1942.26632631755 2027.93357542198 2113.60082452641 2199.26807363084 2284.93532273527 2370.60257183971 2456.26982094414 2541.93707004857 2627.604319153 2713.27156825745 2798.93881736189 2884.6060664663 2970.27331557073 3055.94056467516 3141.60781377959 3227.27506288403 3312.94231198845 3398.60956109289 3484.27681019732 3569.94405930175 3655.61130840618 3741.27855751062 3826.94580661504 3912.61305569382 3998.28231029759
      62 0.00098740893   -2970724.5            0   -2970724.4     1.571976 
1428.26610312284 1513.93008082251 1599.59732989982 1685.26457900425 1770.93182810868 1856.59907721311 1942.26632631755 2027.93357542198 2113.60082452641 2199.26807363084 2284.93532273527 2370.60257183971 2456.26982094414 2541.93707004857 2627.604319153 2713.27156825745 2798.93881736189 2884.6060664663 2970.27331557073 3055.94056467516 3141.60781377959 3227.27506288403 3312.94231198845 3398.60956109289 3484.27681019732 3569.94405930175 3655.61130840618 3741.27855751062 3826.94580661504 3912.61305569235 3998.28231029385
      63 0.00098891717   -2970724.5            0   -2970724.4    1.7166476 
1428.26654268796 1513.93008082412 1599.59732989982 1685.26457900425 1770.93182810868 1856.59907721311 1942.26632631755 2027.93357542198 2113.60082452641 2199.26807363084 2284.93532273527 2370.6025718397 2456.26982094414 2541.93707004857 2627.604319153 2713.27156825745 2798.93881736189 2884.6060664663 2970.27331557073 3055.94056467516 3141.60781377959 3227.27506288403 3312.94231198845 3398.60956109289 3484.27681019732 3569.94405930175 3655.61130840618 3741.27855751062 3826.94580661504 3912.61305569075 3998.2823102898
      64 0.00099116876   -2970724.5            0   -2970724.4    1.8612654 
1428.26698221021 1513.93008082585 1599.59732989982 1685.26457900425 1770.93182810869 1856.59907721312 1942.26632631755 2027.93357542198 2113.60082452641 2199.26807363084 2284.93532273527 2370.6025718397 2456.26982094414 2541.93707004857 2627.604319153 2713.27156825745 2798.93881736189 2884.6060664663 2970.27331557073 3055.94056467516 3141.6078137796 3227.27506288402 3312.94231198845 3398.60956109289 3484.27681019732 3569.94405930175 3655.61130840618 3741.27855751061 3826.94580661504 3912.61305568901 3998.28231028545
      65 0.00099427948   -2970724.5            0   -2970724.4    2.0058294 
1428.26742168629 1513.93008082772 1599.59732989982 1685.26457900425 1770.93182810869 1856.59907721311 1942.26632631755 2027.93357542198 2113.60082452641 2199.26807363084 2284.93532273527 2370.6025718397 2456.26982094414 2541.93707004857 2627.604319153 2713.27156825745 2798.93881736189 2884.6060664663 2970.27331557073 3055.94056467516 3141.6078137796 3227.27506288402 3312.94231198846 3398.60956109289 3484.27681019732 3569.94405930175 3655.61130840618 3741.27855751061 3826.94580661504 3912.61305568714 3998.2823102808
      66 0.00099837001   -2970724.5            0   -2970724.4    2.1503401 
1428.2678611129 1513.93008082972 1599.59732989982 1685.26457900425 1770.93182810868 1856.59907721312 1942.26632631755 2027.93357542198 2113.60082452641 2199.26807363084 2284.93532273527 2370.6025718397 2456.26982094414 2541.93707004857 2627.604319153 2713.27156825745 2798.93881736189 2884.6060664663 2970.27331557073 3055.94056467516 3141.6078137796 3227.27506288402 3312.94231198846 3398.60956109289 3484.27681019732 3569.94405930176 3655.61130840618 3741.27855751061 3826.94580661504 3912.61305568515 3998.28231027587
      67  0.001003565   -2970724.5            0   -2970724.4    2.2947981 
1428.26830048674 1513.93008083186 1599.59732989982 1685.26457900425 1770.93182810868 1856.59907721312 1942.26632631755 2027.93357542198 2113.60082452641 2199.26807363084 2284.93532273528 2370.6025718397 2456.26982094414 2541.93707004857 2627.604319153 2713.27156825745 2798.93881736189 2884.6060664663 2970.27331557073 3055.94056467516 3141.60781377959 3227.27506288402 3312.94231198845 3398.60956109289 3484.27681019732 3569.94405930175 3655.61130840618 3741.27855751061 3826.94580661504 3912.613055683 3998.28231027066
      68 0.0010099924   -2970724.5            0   -2970724.4    2.4392042 
1428.26873980453 1513.93008083414 1599.59732989982 1685.26457900425 1770.93182810869 1856.59907721312 1942.26632631755 2027.93357542198 2113.60082452641 2199.26807363084 2284.93532273528 2370.6025718397 2456.26982094414 2541.93707004857 2627.604319153 2713.27156825745 2798.93881736189 2884.6060664663 2970.27331557073 3055.94056467516 3141.60781377959 3227.27506288402 3312.94231198845 3398.60956109289 3484.27681019732 3569.94405930175 3655.61130840618 3741.27855751061 3826.94580661504 3912.61305568073 3998.28231026517
      69  0.001017782   -2970724.5            0   -2970724.4     2.583559 
1428.26917906296 1513.93008083655 1599.59732989982 1685.26457900425 1770.93182810868 1856.59907721312 1942.26632631755 2027.93357542198 2113.60082452641 2199.26807363084 2284.93532273528 2370.6025718397 2456.26982094414 2541.93707004857 2627.604319153 2713.27156825745 2798.93881736189 2884.6060664663 2970.27331557073 3055.94056467516 3141.60781377959 3227.27506288402 3312.94231198846 3398.6095610929 3484.27681019732 3569.94405930175 3655.61130840619 3741.27855751061 3826.94580661504 3912.61305567832 3998.28231025941
      70 0.0010270652   -2970724.4            0   -2970724.3    2.7278634 
1428.26961825874 1513.93008083911 1599.59732989982 1685.26457900425 1770.93182810868 1856.59907721312 1942.26632631755 2027.93357542198 2113.60082452641 2199.26807363084 2284.93532273528 2370.6025718397 2456.26982094414 2541.93707004857 2627.604319153 2713.27156825745 2798.93881736189 2884.6060664663 2970.27331557073 3055.94056467516 3141.60781377959 3227.27506288402 3312.94231198846 3398.6095610929 3484.27681019732 3569.94405930175 3655.61130840618 3741.27855751061 3826.94580661504 3912.61305567575 3998.2823102534
      71 0.0010379736   -2970724.4            0   -2970724.3    2.8721181 
1428.27005738859 1513.93008084181 1599.59732989982 1685.26457900425 1770.93182810868 1856.59907721312 1942.26632631755 2027.93357542198 2113.60082452641 2199.26807363084 2284.93532273527 2370.6025718397 2456.26982094414 2541.93707004857 2627.604319153 2713.27156825745 2798.93881736189 2884.6060664663 2970.27331557073 3055.94056467516 3141.60781377959 3227.27506288402 3312.94231198845 3398.60956109289 3484.27681019732 3569.94405930175 3655.61130840618 3741.27855751061 3826.94580661504 3912.61305567305 3998.28231024713
      72 0.0010506383   -2970724.4            0   -2970724.3    3.0163237 
1428.2704964492 1513.93008084465 1599.59732989982 1685.26457900425 1770.93182810868 1856.59907721312 1942.26632631755 2027.93357542198 2113.60082452641 2199.26807363084 2284.93532273527 2370.60257183971 2456.26982094413 2541.93707004857 2627.604319153 2713.27156825745 2798.93881736189 2884.6060664663 2970.27331557073 3055.94056467515 3141.60781377959 3227.27506288402 3312.94231198846 3398.6095610929 3484.27681019732 3569.94405930175 3655.61130840618 3741.27855751061 3826.94580661504 3912.61305567022 3998.28231024062
      73 0.0010651886   -2970724.4            0   -2970724.3    3.1604809 
1428.27093543729 1513.93008084764 1599.59732989982 1685.26457900425 1770.93182810868 1856.59907721311 1942.26632631755 2027.93357542198 2113.60082452641 2199.26807363084 2284.93532273528 2370.60257183971 2456.26982094413 2541.93707004857 2627.604319153 2713.27156825745 2798.93881736189 2884.6060664663 2970.27331557072 3055.94056467515 3141.60781377959 3227.27506288402 3312.94231198846 3398.6095610929 3484.27681019732 3569.94405930175 3655.61130840618 3741.27855751061 3826.94580661504 3912.61305566722 3998.28231023386
      74 0.0010817517   -2970724.4            0   -2970724.3    3.3045905 
1428.27137434956 1513.93008085077 1599.59732989982 1685.26457900425 1770.93182810869 1856.59907721312 1942.26632631755 2027.93357542198 2113.60082452642 2199.26807363084 2284.93532273527 2370.60257183971 2456.26982094413 2541.93707004857 2627.604319153 2713.27156825745 2798.93881736189 2884.60606646631 2970.27331557072 3055.94056467516 3141.60781377959 3227.27506288402 3312.94231198845 3398.6095610929 3484.27681019732 3569.94405930175 3655.61130840618 3741.2785575106 3826.94580661505 3912.6130556641 3998.28231022689
      75 0.0011004511   -2970724.4            0   -2970724.3    3.4486533 
1428.27181318273 1513.93008085405 1599.59732989982 1685.26457900425 1770.93182810868 1856.59907721311 1942.26632631755 2027.93357542198 2113.60082452642 2199.26807363084 2284.93532273527 2370.60257183971 2456.26982094413 2541.93707004857 2627.604319153 2713.27156825745 2798.93881736189 2884.60606646631 2970.27331557072 3055.94056467516 3141.60781377959 3227.27506288402 3312.94231198846 3398.6095610929 3484.27681019732 3569.94405930175 3655.61130840617 3741.2785575106 3826.94580661505 3912.61305566082 3998.28231021969
      76 0.0011214065   -2970724.4            0   -2970724.3    3.5926702 
1428.27225193349 1513.93008085748 1599.59732989982 1685.26457900425 1770.93182810869 1856.59907721311 1942.26632631755 2027.93357542198 2113.60082452642 2199.26807363084 2284.93532273527 2370.60257183972 2456.26982094413 2541.93707004856 2627.60431915301 2713.27156825745 2798.93881736189 2884.60606646631 2970.27331557071 3055.94056467516 3141.6078137796 3227.27506288401 3312.94231198846 3398.60956109291 3484.27681019732 3569.94405930175 3655.61130840617 3741.27855751059 3826.94580661504 3912.61305565738 3998.28231021228
      77 0.0011447323   -2970724.4            0   -2970724.3    3.7366421 
1428.27269059858 1513.93008086107 1599.59732989982 1685.26457900425 1770.93182810869 1856.59907721312 1942.26632631755 2027.93357542198 2113.60082452642 2199.26807363084 2284.93532273528 2370.60257183972 2456.26982094413 2541.93707004856 2627.60431915302 2713.27156825745 2798.93881736189 2884.60606646631 2970.27331557071 3055.94056467516 3141.6078137796 3227.275062884 3312.94231198845 3398.60956109291 3484.27681019731 3569.94405930175 3655.61130840617 3741.2785575106 3826.94580661504 3912.61305565379 3998.28231020466
      78 0.0011705371   -2970724.4            0   -2970724.3    3.8805699 
1428.27312917469 1513.93008086481 1599.59732989982 1685.26457900425 1770.93182810868 1856.59907721312 1942.26632631755 2027.93357542198 2113.60082452642 2199.26807363084 2284.93532273528 2370.60257183972 2456.26982094413 2541.93707004857 2627.60431915302 2713.27156825745 2798.93881736189 2884.60606646631 2970.27331557071 3055.94056467516 3141.6078137796 3227.275062884 3312.94231198845 3398.60956109291 3484.27681019731 3569.94405930175 3655.61130840617 3741.27855751059 3826.94580661504 3912.61305565008 3998.28231019685
      79 0.0011989229   -2970724.4            0   -2970724.3    4.0244544 
1428.27356765854 1513.93008086871 1599.59732989982 1685.26457900425 1770.93182810868 1856.59907721312 1942.26632631755 2027.93357542198 2113.60082452642 2199.26807363084 2284.93532273527 2370.60257183972 2456.26982094413 2541.93707004856 2627.60431915301 2713.27156825745 2798.93881736189 2884.60606646631 2970.27331557072 3055.94056467516 3141.6078137796 3227.27506288401 3312.94231198846 3398.60956109291 3484.27681019732 3569.94405930175 3655.61130840617 3741.27855751059 3826.94580661504 3912.61305564613 3998.28231018886
      80 0.0012299844   -2970724.4            0   -2970724.2    4.1682962 
1428.27400604685 1513.93008087276 1599.59732989982 1685.26457900425 1770.93182810868 1856.59907721312 1942.26632631755 2027.93357542198 2113.60082452642 2199.26807363084 2284.93532273527 2370.60257183971 2456.26982094413 2541.93707004857 2627.60431915301 2713.27156825745 2798.93881736189 2884.60606646631 2970.27331557072 3055.94056467515 3141.60781377959 3227.27506288401 3312.94231198846 3398.6095610929 3484.27681019732 3569.94405930175 3655.61130840617 3741.2785575106 3826.94580661504 3912.61305564211 3998.2823101807
      81 0.0012638084   -2970724.3            0   -2970724.2    4.3120959 
1428.27444433631 1513.93008087698 1599.59732989982 1685.26457900425 1770.93182810868 1856.59907721312 1942.26632631755 2027.93357542198 2113.60082452642 2199.26807363084 2284.93532273527 2370.60257183971 2456.26982094413 2541.93707004857 2627.604319153 2713.27156825745 2798.93881736189 2884.60606646631 2970.27331557073 3055.94056467516 3141.60781377959 3227.27506288402 3312.94231198845 3398.6095610929 3484.27681019732 3569.94405930176 3655.61130840617 3741.2785575106 3826.94580661504 3912.61305563789 3998.28231017236
      82 0.0013004732   -2970724.3            0   -2970724.2    4.4558538 
1428.27488252367 1513.93008088136 1599.59732989982 1685.26457900425 1770.93182810868 1856.59907721312 1942.26632631755 2027.93357542198 2113.60082452641 2199.26807363084 2284.93532273527 2370.60257183971 2456.26982094414 2541.93707004857 2627.604319153 2713.27156825745 2798.93881736189 2884.6060664663 2970.27331557073 3055.94056467516 3141.60781377959 3227.27506288402 3312.94231198846 3398.60956109289 3484.27681019732 3569.94405930176 3655.61130840617 3741.2785575106 3826.94580661504 3912.61305563351 3998.28231016387
      83 0.0013400479   -2970724.3            0   -2970724.2    4.5995704 
1428.27532060562 1513.93008088591 1599.59732989982 1685.26457900425 1770.93182810868 1856.59907721312 1942.26632631755 2027.93357542198 2113.60082452641 2199.26807363084 2284.93532273527 2370.60257183971 2456.26982094414 2541.93707004857 2627.604319153 2713.27156825745 2798.93881736189 2884.6060664663 2970.27331557073 3055.94056467515 3141.60781377959 3227.27506288402 3312.94231198846 3398.60956109289 3484.27681019732 3569.94405930176 3655.61130840617 3741.2785575106 3826.94580661505 3912.61305562896 3998.28231015524
      84 0.0013825923   -2970724.3            0   -2970724.2    4.7432458 
1428.27575857889 1513.93008089062 1599.59732989982 1685.26457900425 1770.93182810868 1856.59907721312 1942.26632631755 2027.93357542198 2113.60082452641 2199.26807363084 2284.93532273527 2370.6025718397 2456.26982094414 2541.93707004857 2627.604319153 2713.27156825745 2798.93881736189 2884.6060664663 2970.27331557073 3055.94056467516 3141.60781377959 3227.27506288402 3312.94231198846 3398.60956109289 3484.27681019732 3569.94405930176 3655.61130840617 3741.2785575106 3826.94580661505 3912.61305562425 3998.28231014647
      85 0.0014281559   -2970724.3            0   -2970724.2    4.8868803 
1428.27619644019 1513.9300808955 1599.59732989982 1685.26457900425 1770.93182810869 1856.59907721312 1942.26632631755 2027.93357542198 2113.60082452641 2199.26807363084 2284.93532273527 2370.60257183971 2456.26982094414 2541.93707004857 2627.604319153 2713.27156825745 2798.93881736189 2884.6060664663 2970.27331557073 3055.94056467516 3141.60781377959 3227.27506288402 3312.94231198846 3398.60956109289 3484.27681019732 3569.94405930176 3655.61130840617 3741.27855751061 3826.94580661504 3912.61305561936 3998.28231013757
      86 0.0014767782   -2970724.3            0   -2970724.2    5.0304739 
1428.27663418624 1513.93008090056 1599.59732989982 1685.26457900425 1770.93182810868 1856.59907721311 1942.26632631755 2027.93357542198 2113.60082452641 2199.26807363084 2284.93532273527 2370.60257183971 2456.26982094414 2541.93707004857 2627.604319153 2713.27156825745 2798.93881736189 2884.60606646629 2970.27331557073 3055.94056467516 3141.60781377959 3227.27506288402 3312.94231198846 3398.60956109289 3484.27681019732 3569.94405930176 3655.61130840617 3741.27855751061 3826.94580661504 3912.6130556143 3998.28231012857
      87  0.001528488   -2970724.3            0   -2970724.1    5.1740267 
1428.27707181377 1513.93008090579 1599.59732989982 1685.26457900425 1770.93182810868 1856.59907721312 1942.26632631755 2027.93357542198 2113.60082452641 2199.26807363084 2284.93532273527 2370.6025718397 2456.26982094414 2541.93707004857 2627.604319153 2713.27156825745 2798.93881736189 2884.6060664663 2970.27331557073 3055.94056467516 3141.60781377959 3227.27506288402 3312.94231198846 3398.60956109289 3484.27681019732 3569.94405930175 3655.61130840617 3741.27855751061 3826.94580661504 3912.61305560908 3998.28231011945
      88 0.0015833036   -2970724.3            0   -2970724.1    5.3175386 
1428.2775093195 1513.9300809112 1599.59732989982 1685.26457900425 1770.93182810869 1856.59907721311 1942.26632631755 2027.93357542198 2113.60082452641 2199.26807363084 2284.93532273527 2370.60257183971 2456.26982094414 2541.93707004857 2627.604319153 2713.27156825745 2798.93881736189 2884.6060664663 2970.27331557073 3055.94056467516 3141.60781377959 3227.27506288402 3312.94231198846 3398.60956109289 3484.27681019732 3569.94405930175 3655.61130840618 3741.27855751061 3826.94580661504 3912.61305560366 3998.28231011024
      89 0.0016412322   -2970724.3            0   -2970724.1    5.4610093 
1428.27794670014 1513.9300809168 1599.59732989982 1685.26457900425 1770.93182810869 1856.59907721311 1942.26632631755 2027.93357542198 2113.60082452641 2199.26807363084 2284.93532273527 2370.60257183971 2456.26982094413 2541.93707004857 2627.604319153 2713.27156825745 2798.93881736189 2884.6060664663 2970.27331557072 3055.94056467516 3141.60781377959 3227.27506288402 3312.94231198846 3398.60956109289 3484.27681019732 3569.94405930175 3655.61130840618 3741.27855751061 3826.94580661504 3912.61305559807 3998.28231010094
      90 0.0017022702   -2970724.3            0   -2970724.1    5.6044385 
1428.27838395242 1513.93008092257 1599.59732989982 1685.26457900425 1770.93182810868 1856.59907721312 1942.26632631755 2027.93357542198 2113.60082452641 2199.26807363084 2284.93532273527 2370.60257183971 2456.26982094414 2541.93707004857 2627.604319153 2713.27156825745 2798.93881736189 2884.60606646629 2970.27331557072 3055.94056467516 3141.60781377959 3227.27506288403 3312.94231198846 3398.60956109289 3484.27681019731 3569.94405930175 3655.61130840618 3741.27855751061 3826.94580661505 3912.6130555923 3998.28231009156
      91  0.001766403   -2970724.3            0   -2970724.1    5.7478255 
1428.27882107307 1513.93008092853 1599.59732989982 1685.26457900425 1770.93182810869 1856.59907721311 1942.26632631755 2027.93357542198 2113.60082452641 2199.26807363084 2284.93532273527 2370.60257183971 2456.26982094414 2541.93707004857 2627.604319153 2713.27156825745 2798.93881736189 2884.60606646629 2970.27331557072 3055.94056467516 3141.60781377959 3227.27506288403 3312.94231198845 3398.60956109289 3484.27681019731 3569.94405930175 3655.61130840618 3741.27855751061 3826.94580661505 3912.61305558633 3998.28231008213
      92 0.0018336056   -2970724.2            0   -2970724.1    5.8911697 
1428.27925805882 1513.93008093468 1599.59732989982 1685.26457900425 1770.93182810868 1856.59907721312 1942.26632631755 2027.93357542198 2113.60082452641 2199.26807363084 2284.93532273527 2370.60257183971 2456.26982094413 2541.93707004857 2627.604319153 2713.27156825745 2798.93881736189 2884.60606646629 2970.27331557073 3055.94056467516 3141.60781377959 3227.27506288403 3312.94231198846 3398.60956109289 3484.27681019731 3569.94405930175 3655.61130840618 3741.27855751061 3826.94580661504 3912.61305558018 3998.28231007262
      93 0.0019038419   -2970724.2            0   -2970724.1    6.0344703 
1428.27969490638 1513.93008094102 1599.59732989982 1685.26457900425 1770.93182810868 1856.59907721312 1942.26632631755 2027.93357542198 2113.60082452641 2199.26807363084 2284.93532273527 2370.60257183971 2456.26982094414 2541.93707004857 2627.604319153 2713.27156825745 2798.93881736189 2884.6060664663 2970.27331557073 3055.94056467516 3141.60781377959 3227.27506288402 3312.94231198846 3398.60956109289 3484.27681019731 3569.94405930175 3655.61130840618 3741.27855751061 3826.94580661504 3912.61305557384 3998.28231006308
      94 0.0019770657   -2970724.2            0     -2970724    6.1777262 
1428.2801316125 1513.93008094756 1599.59732989982 1685.26457900425 1770.93182810868 1856.59907721312 1942.26632631755 2027.93357542198 2113.60082452641 2199.26807363084 2284.93532273527 2370.60257183971 2456.26982094414 2541.93707004857 2627.604319153 2713.27156825745 2798.93881736189 2884.60606646629 2970.27331557073 3055.94056467516 3141.60781377959 3227.27506288402 3312.94231198846 3398.60956109289 3484.27681019732 3569.94405930175 3655.61130840617 3741.27855751061 3826.94580661504 3912.61305556731 3998.28231005351
      95 0.0020532207   -2970724.2            0     -2970724    6.3209364 
1428.28056817389 1513.9300809543 1599.59732989982 1685.26457900425 1770.93182810868 1856.59907721312 1942.26632631755 2027.93357542198 2113.60082452641 2199.26807363084 2284.93532273527 2370.60257183971 2456.26982094414 2541.93707004857 2627.604319153 2713.27156825745 2798.93881736189 2884.6060664663 2970.27331557073 3055.94056467516 3141.60781377959 3227.27506288402 3312.94231198846 3398.60956109289 3484.27681019732 3569.94405930175 3655.61130840617 3741.27855751061 3826.94580661504 3912.61305556057 3998.28231004391
      96 0.0021322407   -2970724.2            0     -2970724    6.4640996 
1428.28100458729 1513.93008096123 1599.59732989982 1685.26457900425 1770.93182810868 1856.59907721312 1942.26632631755 2027.93357542198 2113.60082452641 2199.26807363084 2284.93532273527 2370.60257183971 2456.26982094414 2541.93707004857 2627.604319153 2713.27156825745 2798.93881736189 2884.6060664663 2970.27331557072 3055.94056467516 3141.60781377959 3227.27506288402 3312.94231198846 3398.60956109289 3484.27681019732 3569.94405930175 3655.61130840618 3741.27855751061 3826.94580661504 3912.61305555364 3998.28231003429
      97 0.0022140502   -2970724.2            0     -2970724    6.6072145 
1428.28144084944 1513.93008096837 1599.59732989982 1685.26457900425 1770.93182810869 1856.59907721312 1942.26632631755 2027.93357542198 2113.60082452641 2199.26807363084 2284.93532273527 2370.60257183971 2456.26982094414 2541.93707004857 2627.604319153 2713.27156825745 2798.93881736189 2884.6060664663 2970.27331557073 3055.94056467516 3141.60781377959 3227.27506288402 3312.94231198846 3398.60956109289 3484.27681019732 3569.94405930175 3655.61130840618 3741.27855751061 3826.94580661504 3912.6130555465 3998.28231002466
      98 0.0022985651   -2970724.2            0     -2970724      6.75028 
1428.28187695707 1513.93008097572 1599.59732989982 1685.26457900425 1770.93182810868 1856.59907721312 1942.26632631755 2027.93357542198 2113.60082452641 2199.26807363084 2284.93532273528 2370.60257183971 2456.26982094414 2541.93707004857 2627.604319153 2713.27156825745 2798.93881736189 2884.60606646629 2970.27331557073 3055.94056467516 3141.60781377959 3227.27506288402 3312.94231198845 3398.60956109289 3484.27681019732 3569.94405930175 3655.61130840617 3741.27855751061 3826.94580661504 3912.61305553915 3998.28231001503
      99 0.0023856925   -2970724.2            0     -2970724    6.8932944 
1428.28231290691 1513.93008098327 1599.59732989982 1685.26457900425 1770.93182810869 1856.59907721312 1942.26632631755 2027.93357542198 2113.60082452641 2199.26807363084 2284.93532273528 2370.60257183971 2456.26982094414 2541.93707004857 2627.604319153 2713.27156825745 2798.93881736189 2884.60606646629 2970.27331557073 3055.94056467516 3141.60781377959 3227.27506288402 3312.94231198845 3398.60956109289 3484.27681019732 3569.94405930175 3655.61130840618 3741.27855751061 3826.94580661505 3912.6130555316 3998.28231000541
     100 0.0024753322   -2970724.2            0   -2970723.9    7.0362562 
1428.2827486957 1513.93008099104 1599.59732989982 1685.26457900425 1770.93182810869 1856.59907721311 1942.26632631755 2027.93357542198 2113.60082452641 2199.26807363084 2284.93532273528 2370.6025718397 2456.26982094414 2541.93707004857 2627.604319153 2713.27156825745 2798.93881736189 2884.60606646629 2970.27331557073 3055.94056467516 3141.60781377959 3227.27506288402 3312.94231198845 3398.60956109289 3484.27681019732 3569.94405930175 3655.61130840618 3741.27855751061 3826.94580661504 3912.61305552383 3998.28230999583
     101 0.0025673763   -2970724.2            0   -2970723.9    7.1791639 
1428.28318432019 1513.93008099902 1599.59732989982 1685.26457900425 1770.93182810868 1856.59907721312 1942.26632631755 2027.93357542198 2113.60082452641 2199.26807363084 2284.93532273528 2370.6025718397 2456.26982094414 2541.93707004857 2627.604319153 2713.27156825745 2798.93881736189 2884.6060664663 2970.27331557073 3055.94056467516 3141.60781377959 3227.27506288402 3312.94231198846 3398.60956109289 3484.27681019732 3569.94405930175 3655.61130840618 3741.27855751061 3826.94580661505 3912.61305551584 3998.28230998627
     102 0.0026617108   -2970724.2            0   -2970723.9    7.3220156 
1428.2836197771 1513.93008100722 1599.59732989982 1685.26457900425 1770.93182810868 1856.59907721312 1942.26632631755 2027.93357542198 2113.60082452641 2199.26807363084 2284.93532273527 2370.6025718397 2456.26982094414 2541.93707004857 2627.604319153 2713.27156825745 2798.93881736189 2884.6060664663 2970.27331557073 3055.94056467516 3141.60781377959 3227.27506288402 3312.94231198845 3398.60956109289 3484.27681019732 3569.94405930175 3655.61130840618 3741.27855751061 3826.94580661505 3912.61305550765 3998.28230997674
     103 0.0027582155   -2970724.1            0   -2970723.9    7.4648096 
1428.28405506318 1513.93008101565 1599.59732989982 1685.26457900425 1770.93182810868 1856.59907721312 1942.26632631755 2027.93357542198 2113.60082452641 2199.26807363084 2284.93532273527 2370.6025718397 2456.26982094414 2541.93707004857 2627.604319153 2713.27156825745 2798.93881736189 2884.6060664663 2970.27331557073 3055.94056467516 3141.60781377959 3227.27506288402 3312.94231198845 3398.60956109289 3484.27681019732 3569.94405930175 3655.61130840618 3741.27855751061 3826.94580661505 3912.61305549922 3998.28230996727
     104 0.0028567651   -2970724.1            0   -2970723.9    7.6075439 
1428.28449017519 1513.9300810243 1599.59732989982 1685.26457900425 1770.93182810868 1856.59907721312 1942.26632631755 2027.93357542198 2113.60082452641 2199.26807363084 2284.93532273527 2370.60257183971 2456.26982094414 2541.93707004857 2627.604319153 2713.27156825745 2798.93881736189 2884.6060664663 2970.27331557073 3055.94056467516 3141.60781377959 3227.27506288402 3312.94231198845 3398.60956109289 3484.27681019732 3569.94405930175 3655.61130840618 3741.27855751061 3826.94580661505 3912.61305549057 3998.28230995785
     105   0.00295723   -2970724.1            0   -2970723.9    7.7502166 
1428.28492510985 1513.93008103317 1599.59732989982 1685.26457900425 1770.93182810869 1856.59907721312 1942.26632631755 2027.93357542198 2113.60082452641 2199.26807363084 2284.93532273527 2370.60257183971 2456.26982094414 2541.93707004857 2627.604319153 2713.27156825745 2798.93881736189 2884.6060664663 2970.27331557073 3055.94056467516 3141.60781377959 3227.27506288402 3312.94231198845 3398.60956109289 3484.27681019732 3569.94405930175 3655.61130840618 3741.27855751061 3826.94580661505 3912.6130554817 3998.2823099485
     106 0.0030594766   -2970724.1            0   -2970723.8    7.8928258 
1428.28535986392 1513.93008104228 1599.59732989982 1685.26457900425 1770.93182810869 1856.59907721312 1942.26632631755 2027.93357542198 2113.60082452641 2199.26807363084 2284.93532273528 2370.60257183971 2456.26982094414 2541.93707004857 2627.604319153 2713.27156825745 2798.93881736189 2884.6060664663 2970.27331557073 3055.94056467516 3141.60781377959 3227.27506288402 3312.94231198845 3398.60956109289 3484.27681019732 3569.94405930175 3655.61130840618 3741.27855751061 3826.94580661505 3912.61305547258 3998.28230993922
     107 0.0031633683   -2970724.1            0   -2970723.8    8.0353696 
1428.28579443414 1513.93008105163 1599.59732989982 1685.26457900425 1770.93182810868 1856.59907721312 1942.26632631755 2027.93357542198 2113.60082452641 2199.26807363084 2284.93532273528 2370.60257183971 2456.26982094414 2541.93707004857 2627.604319153 2713.27156825745 2798.93881736189 2884.6060664663 2970.27331557073 3055.94056467516 3141.60781377959 3227.27506288402 3312.94231198845 3398.60956109289 3484.27681019732 3569.94405930175 3655.61130840618 3741.27855751061 3826.94580661505 3912.61305546324 3998.28230993003
     108 0.0032687665   -2970724.1            0   -2970723.8    8.1778458 
1428.28622881727 1513.93008106121 1599.59732989982 1685.26457900425 1770.93182810868 1856.59907721312 1942.26632631755 2027.93357542198 2113.60082452641 2199.26807363084 2284.93532273528 2370.60257183971 2456.26982094414 2541.93707004857 2627.604319153 2713.27156825745 2798.93881736189 2884.60606646629 2970.27331557073 3055.94056467516 3141.60781377959 3227.27506288402 3312.94231198845 3398.60956109289 3484.27681019732 3569.94405930175 3655.61130840618 3741.27855751061 3826.94580661505 3912.61305545365 3998.28230992092
     109 0.0033755307   -2970724.1            0   -2970723.8    8.3202522 
1428.28666301006 1513.93008107104 1599.59732989982 1685.26457900425 1770.93182810869 1856.59907721312 1942.26632631755 2027.93357542198 2113.60082452641 2199.26807363084 2284.93532273528 2370.6025718397 2456.26982094414 2541.93707004857 2627.604319153 2713.27156825745 2798.93881736189 2884.60606646629 2970.27331557073 3055.94056467516 3141.60781377959 3227.27506288402 3312.94231198845 3398.60956109289 3484.27681019732 3569.94405930175 3655.61130840618 3741.27855751061 3826.94580661505 3912.61305544383 3998.28230991192
     110 0.0034835199   -2970724.1            0   -2970723.8    8.4625887 
1428.28709700926 1513.93008108111 1599.59732989982 1685.26457900425 1770.93182810869 1856.59907721311 1942.26632631755 2027.93357542198 2113.60082452641 2199.26807363084 2284.93532273528 2370.6025718397 2456.26982094414 2541.93707004857 2627.604319153 2713.27156825745 2798.93881736189 2884.60606646629 2970.27331557073 3055.94056467516 3141.60781377959 3227.27506288402 3312.94231198846 3398.60956109289 3484.27681019732 3569.94405930175 3655.61130840618 3741.27855751061 3826.94580661505 3912.61305543376 3998.28230990301
     111 0.0035925928   -2970724.1            0   -2970723.7     8.604853 
1428.28753081163 1513.93008109143 1599.59732989982 1685.26457900425 1770.93182810869 1856.59907721311 1942.26632631755 2027.93357542198 2113.60082452641 2199.26807363084 2284.93532273527 2370.6025718397 2456.26982094414 2541.93707004857 2627.604319153 2713.27156825745 2798.93881736189 2884.60606646629 2970.27331557073 3055.94056467516 3141.60781377959 3227.27506288402 3312.94231198845 3398.60956109289 3484.27681019732 3569.94405930175 3655.61130840618 3741.27855751061 3826.94580661505 3912.61305542344 3998.28230989422
     112 0.0037026089   -2970724.1            0   -2970723.7    8.7470395 
1428.28796441392 1513.930081102 1599.59732989982 1685.26457900425 1770.93182810868 1856.59907721311 1942.26632631755 2027.93357542198 2113.60082452641 2199.26807363084 2284.93532273527 2370.6025718397 2456.26982094414 2541.93707004857 2627.604319153 2713.27156825745 2798.93881736189 2884.6060664663 2970.27331557073 3055.94056467516 3141.60781377959 3227.27506288402 3312.94231198845 3398.60956109289 3484.27681019732 3569.94405930175 3655.61130840618 3741.27855751061 3826.94580661504 3912.61305541287 3998.28230988556
     113 0.0038134289   -2970724.1            0   -2970723.7    8.8891453 
1428.28839781289 1513.93008111282 1599.59732989982 1685.26457900425 1770.93182810868 1856.59907721312 1942.26632631754 2027.93357542198 2113.60082452641 2199.26807363084 2284.93532273527 2370.6025718397 2456.26982094414 2541.93707004857 2627.604319153 2713.27156825745 2798.93881736189 2884.6060664663 2970.27331557073 3055.94056467516 3141.6078137796 3227.27506288402 3312.94231198846 3398.60956109289 3484.27681019732 3569.94405930175 3655.61130840617 3741.27855751061 3826.94580661504 3912.61305540205 3998.28230987702
     114 0.0039249157   -2970724.1            0   -2970723.7    9.0311686 
1428.28883100531 1513.9300811239 1599.59732989982 1685.26457900425 1770.93182810869 1856.59907721312 1942.26632631755 2027.93357542198 2113.60082452641 2199.26807363084 2284.93532273527 2370.60257183971 2456.26982094414 2541.93707004857 2627.604319153 2713.27156825745 2798.93881736189 2884.6060664663 2970.27331557073 3055.94056467516 3141.6078137796 3227.27506288402 3312.94231198846 3398.60956109289 3484.27681019732 3569.94405930175 3655.61130840617 3741.27855751061 3826.94580661504 3912.61305539097 3998.28230986862
     115 0.0040369344   -2970724.1            0   -2970723.7    9.1731075 
1428.28926398794 1513.93008113525 1599.59732989982 1685.26457900425 1770.93182810868 1856.59907721312 1942.26632631755 2027.93357542198 2113.60082452641 2199.26807363084 2284.93532273527 2370.60257183971 2456.26982094414 2541.93707004857 2627.604319153 2713.27156825745 2798.93881736189 2884.6060664663 2970.27331557073 3055.94056467516 3141.60781377959 3227.27506288402 3312.94231198846 3398.60956109289 3484.27681019732 3569.94405930175 3655.61130840618 3741.27855751061 3826.94580661504 3912.61305537961 3998.28230986035
     116 0.0041493536     -2970724            0   -2970723.7    9.3149562 
1428.28969675754 1513.93008114686 1599.59732989982 1685.26457900425 1770.93182810869 1856.59907721311 1942.26632631755 2027.93357542198 2113.60082452641 2199.26807363084 2284.93532273527 2370.60257183971 2456.26982094414 2541.93707004857 2627.604319153 2713.27156825745 2798.93881736189 2884.6060664663 2970.27331557072 3055.94056467516 3141.60781377959 3227.27506288402 3312.94231198846 3398.60956109289 3484.27681019732 3569.94405930175 3655.61130840618 3741.27855751061 3826.94580661504 3912.61305536801 3998.28230985224
     117 0.0042620457     -2970724            0   -2970723.6    9.4567117 
1428.29012931088 1513.93008115874 1599.59732989982 1685.26457900425 1770.93182810868 1856.59907721312 1942.26632631755 2027.93357542198 2113.60082452641 2199.26807363084 2284.93532273527 2370.60257183971 2456.26982094414 2541.93707004857 2627.604319153 2713.27156825745 2798.93881736189 2884.6060664663 2970.27331557072 3055.94056467516 3141.60781377959 3227.27506288403 3312.94231198846 3398.60956109289 3484.27681019731 3569.94405930175 3655.61130840618 3741.27855751061 3826.94580661505 3912.61305535613 3998.28230984429
     118 0.0043748871     -2970724            0   -2970723.6    9.5983732 
1428.29056164473 1513.93008117089 1599.59732989982 1685.26457900425 1770.93182810869 1856.59907721312 1942.26632631755 2027.93357542198 2113.60082452641 2199.26807363084 2284.93532273527 2370.60257183971 2456.26982094414 2541.93707004856 2627.604319153 2713.27156825745 2798.93881736189 2884.6060664663 2970.27331557072 3055.94056467516 3141.60781377959 3227.27506288402 3312.94231198846 3398.60956109289 3484.27681019732 3569.94405930175 3655.61130840618 3741.27855751061 3826.94580661505 3912.61305534398 3998.2823098365
     119 0.0044877591     -2970724            0   -2970723.6    9.7399415 
1428.29099375586 1513.93008118331 1599.59732989982 1685.26457900425 1770.93182810868 1856.59907721312 1942.26632631755 2027.93357542198 2113.60082452641 2199.26807363084 2284.93532273527 2370.60257183971 2456.26982094414 2541.93707004856 2627.604319153 2713.27156825745 2798.93881736189 2884.6060664663 2970.27331557072 3055.94056467516 3141.60781377959 3227.27506288403 3312.94231198846 3398.60956109289 3484.27681019731 3569.94405930175 3655.61130840618 3741.27855751061 3826.94580661505 3912.61305533156 3998.28230982888
     120 0.0046005484     -2970724            0   -2970723.6    9.8814141 
1428.29142564104 1513.93008119601 1599.59732989982 1685.26457900425 1770.93182810868 1856.59907721312 1942.26632631755 2027.93357542198 2113.60082452641 2199.26807363084 2284.93532273527 2370.60257183971 2456.26982094414 2541.93707004856 2627.604319153 2713.27156825745 2798.93881736189 2884.6060664663 2970.27331557072 3055.94056467516 3141.60781377959 3227.27506288403 3312.94231198846 3398.60956109289 3484.27681019732 3569.94405930175 3655.61130840618 3741.27855751061 3826.94580661505 3912.61305531886 3998.28230982144
     121  0.004713147     -2970724            0   -2970723.6     10.02279 
1428.29185729705 1513.93008120899 1599.59732989982 1685.26457900425 1770.93182810869 1856.59907721312 1942.26632631755 2027.93357542198 2113.60082452641 2199.26807363084 2284.93532273527 2370.60257183971 2456.26982094414 2541.93707004857 2627.604319153 2713.27156825745 2798.93881736189 2884.6060664663 2970.27331557072 3055.94056467516 3141.60781377959 3227.27506288403 3312.94231198846 3398.60956109289 3484.27681019732 3569.94405930175 3655.61130840618 3741.27855751061 3826.94580661504 3912.61305530587 3998.28230981417
     122 0.0048254529     -2970724            0   -2970723.5    10.164067 
1428.29228872067 1513.93008122226 1599.59732989982 1685.26457900425 1770.93182810868 1856.59907721312 1942.26632631755 2027.93357542198 2113.60082452641 2199.26807363084 2284.93532273527 2370.60257183971 2456.26982094414 2541.93707004857 2627.604319153 2713.27156825745 2798.93881736189 2884.6060664663 2970.27331557073 3055.94056467516 3141.60781377959 3227.27506288402 3312.94231198846 3398.60956109289 3484.27681019732 3569.94405930175 3655.61130840618 3741.27855751061 3826.94580661504 3912.61305529261 3998.2823098071
     123 0.0049373704     -2970724            0   -2970723.5    10.305245 
1428.29271990867 1513.93008123581 1599.59732989982 1685.26457900425 1770.93182810868 1856.59907721312 1942.26632631755 2027.93357542198 2113.60082452641 2199.26807363084 2284.93532273528 2370.60257183971 2456.26982094413 2541.93707004857 2627.604319153 2713.27156825745 2798.93881736189 2884.6060664663 2970.27331557073 3055.94056467516 3141.60781377959 3227.27506288402 3312.94231198846 3398.60956109289 3484.27681019732 3569.94405930175 3655.61130840618 3741.27855751061 3826.94580661504 3912.61305527905 3998.28230980021
     124 0.0050488104     -2970724            0   -2970723.5    10.446323 
1428.29315085784 1513.93008124966 1599.59732989982 1685.26457900425 1770.93182810868 1856.59907721312 1942.26632631755 2027.93357542198 2113.60082452641 2199.26807363084 2284.93532273527 2370.60257183971 2456.26982094414 2541.93707004857 2627.604319153 2713.27156825745 2798.93881736189 2884.6060664663 2970.27331557073 3055.94056467516 3141.60781377959 3227.27506288402 3312.94231198846 3398.60956109289 3484.27681019733 3569.94405930175 3655.61130840618 3741.27855751061 3826.94580661504 3912.61305526521 3998.28230979354
     125 0.0051596901     -2970724            0   -2970723.5      10.5873 
1428.29358156496 1513.9300812638 1599.59732989982 1685.26457900425 1770.93182810868 1856.59907721312 1942.26632631755 2027.93357542198 2113.60082452641 2199.26807363084 2284.93532273527 2370.60257183971 2456.26982094414 2541.93707004857 2627.604319153 2713.27156825745 2798.93881736189 2884.6060664663 2970.27331557073 3055.94056467516 3141.60781377959 3227.27506288402 3312.94231198846 3398.60956109289 3484.27681019732 3569.94405930176 3655.61130840618 3741.27855751061 3826.94580661504 3912.61305525107 3998.28230978707
     126 0.0052699338     -2970724            0   -2970723.5    10.728174 
1428.29401202682 1513.93008127824 1599.59732989982 1685.26457900425 1770.93182810868 1856.59907721312 1942.26632631755 2027.93357542198 2113.60082452641 2199.26807363084 2284.93532273527 2370.60257183971 2456.26982094414 2541.93707004857 2627.604319153 2713.27156825745 2798.93881736189 2884.6060664663 2970.27331557073 3055.94056467516 3141.60781377959 3227.27506288402 3312.94231198846 3398.60956109289 3484.27681019732 3569.94405930176 3655.61130840617 3741.2785575106 3826.94580661504 3912.61305523663 3998.28230978081
     127 0.0053794727     -2970724            0   -2970723.5    10.868945 
1428.29444224021 1513.93008129298 1599.59732989982 1685.26457900425 1770.93182810868 1856.59907721312 1942.26632631755 2027.93357542198 2113.60082452641 2199.26807363084 2284.93532273527 2370.60257183971 2456.26982094414 2541.93707004857 2627.604319153 2713.27156825745 2798.93881736189 2884.6060664663 2970.27331557073 3055.94056467516 3141.60781377959 3227.27506288402 3312.94231198846 3398.60956109289 3484.27681019732 3569.94405930176 3655.61130840617 3741.2785575106 3826.94580661504 3912.61305522189 3998.28230977478
     128 0.0054882447   -2970723.9            0   -2970723.4    11.009613 
1428.29487220191 1513.93008130802 1599.59732989982 1685.26457900425 1770.93182810868 1856.59907721312 1942.26632631755 2027.93357542198 2113.60082452642 2199.26807363084 2284.93532273527 2370.60257183971 2456.26982094414 2541.93707004857 2627.604319153 2713.27156825745 2798.93881736189 2884.6060664663 2970.27331557073 3055.94056467515 3141.60781377959 3227.27506288402 3312.94231198845 3398.60956109289 3484.27681019732 3569.94405930176 3655.61130840617 3741.2785575106 3826.94580661504 3912.61305520684 3998.28230976896
     129  0.005596195   -2970723.9            0   -2970723.4    11.150176 
1428.29530190873 1513.93008132336 1599.59732989982 1685.26457900425 1770.93182810869 1856.59907721311 1942.26632631755 2027.93357542198 2113.60082452642 2199.26807363084 2284.93532273528 2370.60257183971 2456.26982094414 2541.93707004857 2627.604319153 2713.27156825745 2798.93881736189 2884.60606646631 2970.27331557072 3055.94056467516 3141.60781377959 3227.27506288402 3312.94231198845 3398.60956109289 3484.27681019732 3569.94405930175 3655.61130840617 3741.2785575106 3826.94580661504 3912.61305519152 3998.28230976339
     130 0.0057032753   -2970723.9            0   -2970723.4    11.290635 
1428.29573135745 1513.93008133902 1599.59732989982 1685.26457900425 1770.93182810868 1856.59907721312 1942.26632631755 2027.93357542198 2113.60082452642 2199.26807363084 2284.93532273527 2370.60257183971 2456.26982094413 2541.93707004856 2627.60431915301 2713.27156825745 2798.93881736189 2884.60606646631 2970.27331557072 3055.94056467516 3141.60781377959 3227.27506288402 3312.94231198846 3398.6095610929 3484.27681019732 3569.94405930175 3655.61130840617 3741.2785575106 3826.94580661505 3912.61305517584 3998.28230975804
     131 0.0058094445   -2970723.9            0   -2970723.4    11.430989 
1428.29616054487 1513.93008135499 1599.59732989982 1685.26457900425 1770.93182810869 1856.59907721312 1942.26632631755 2027.93357542198 2113.60082452642 2199.26807363084 2284.93532273528 2370.60257183971 2456.26982094413 2541.93707004856 2627.60431915301 2713.27156825745 2798.93881736189 2884.60606646631 2970.27331557071 3055.94056467516 3141.6078137796 3227.27506288402 3312.94231198846 3398.6095610929 3484.27681019732 3569.94405930175 3655.61130840617 3741.27855751059 3826.94580661504 3912.61305515987 3998.28230975294
     132 0.0059146679   -2970723.9            0   -2970723.4    11.571238 
1428.29658946781 1513.93008137128 1599.59732989982 1685.26457900425 1770.93182810868 1856.59907721312 1942.26632631755 2027.93357542198 2113.60082452642 2199.26807363084 2284.93532273528 2370.60257183972 2456.26982094413 2541.93707004857 2627.60431915301 2713.27156825745 2798.93881736189 2884.60606646631 2970.27331557071 3055.94056467516 3141.6078137796 3227.27506288401 3312.94231198845 3398.60956109291 3484.27681019732 3569.94405930175 3655.61130840617 3741.27855751058 3826.94580661504 3912.61305514359 3998.28230974809
     133 0.0060189173   -2970723.9            0   -2970723.3    11.711381 
1428.29701812304 1513.93008138789 1599.59732989982 1685.26457900425 1770.93182810868 1856.59907721311 1942.26632631755 2027.93357542198 2113.60082452642 2199.26807363084 2284.93532273527 2370.60257183972 2456.26982094413 2541.93707004857 2627.60431915301 2713.27156825745 2798.93881736189 2884.60606646631 2970.27331557072 3055.94056467516 3141.6078137796 3227.275062884 3312.94231198846 3398.60956109291 3484.27681019732 3569.94405930175 3655.61130840617 3741.27855751059 3826.94580661504 3912.61305512698 3998.2823097435
     134  0.006122171   -2970723.9            0   -2970723.3    11.851419 
1428.2974465074 1513.93008140481 1599.59732989982 1685.26457900425 1770.93182810868 1856.59907721312 1942.26632631755 2027.93357542198 2113.60082452642 2199.26807363084 2284.93532273527 2370.60257183971 2456.26982094413 2541.93707004856 2627.60431915301 2713.27156825745 2798.93881736189 2884.60606646631 2970.27331557072 3055.94056467516 3141.6078137796 3227.27506288401 3312.94231198846 3398.60956109291 3484.27681019732 3569.94405930175 3655.61130840617 3741.2785575106 3826.94580661505 3912.61305511007 3998.28230973918
     135 0.0062244132   -2970723.9            0   -2970723.3     11.99135 
1428.29787461767 1513.93008142206 1599.59732989982 1685.26457900425 1770.93182810868 1856.59907721312 1942.26632631755 2027.93357542198 2113.60082452642 2199.26807363084 2284.93532273527 2370.60257183971 2456.26982094413 2541.93707004857 2627.60431915301 2713.27156825745 2798.93881736189 2884.60606646631 2970.27331557072 3055.94056467516 3141.60781377959 3227.27506288402 3312.94231198845 3398.6095610929 3484.27681019732 3569.94405930175 3655.61130840617 3741.2785575106 3826.94580661505 3912.61305509281 3998.28230973512
     136 0.0063256337   -2970723.9            0   -2970723.3    12.131176 
1428.29830245068 1513.93008143964 1599.59732989982 1685.26457900425 1770.93182810868 1856.59907721312 1942.26632631755 2027.93357542198 2113.60082452642 2199.26807363084 2284.93532273528 2370.60257183971 2456.26982094413 2541.93707004856 2627.604319153 2713.27156825745 2798.93881736189 2884.6060664663 2970.27331557073 3055.94056467516 3141.60781377959 3227.27506288402 3312.94231198846 3398.6095610929 3484.27681019732 3569.94405930175 3655.61130840617 3741.2785575106 3826.94580661505 3912.61305507523 3998.28230973133
     137 0.0064258282   -2970723.9            0   -2970723.3    12.270896 
1428.29873000323 1513.93008145755 1599.59732989982 1685.26457900425 1770.93182810868 1856.59907721312 1942.26632631755 2027.93357542198 2113.60082452641 2199.26807363084 2284.93532273528 2370.60257183971 2456.26982094414 2541.93707004857 2627.604319153 2713.27156825745 2798.93881736189 2884.6060664663 2970.27331557073 3055.94056467516 3141.60781377959 3227.27506288402 3312.94231198846 3398.6095610929 3484.27681019732 3569.94405930175 3655.61130840618 3741.2785575106 3826.94580661504 3912.61305505732 3998.28230972784
     138 0.0065249971   -2970723.9            0   -2970723.3     12.41051 
1428.29915727215 1513.93008147579 1599.59732989982 1685.26457900425 1770.93182810868 1856.59907721312 1942.26632631755 2027.93357542198 2113.60082452641 2199.26807363084 2284.93532273527 2370.60257183971 2456.26982094414 2541.93707004857 2627.604319153 2713.27156825745 2798.93881736189 2884.6060664663 2970.27331557073 3055.94056467515 3141.60781377959 3227.27506288403 3312.94231198845 3398.6095610929 3484.27681019732 3569.94405930175 3655.61130840618 3741.27855751061 3826.94580661504 3912.61305503907 3998.28230972462
     139 0.0066231458   -2970723.9            0   -2970723.2    12.550018 
1428.29958425424 1513.93008149437 1599.59732989982 1685.26457900425 1770.93182810869 1856.59907721311 1942.26632631755 2027.93357542198 2113.60082452641 2199.26807363084 2284.93532273527 2370.60257183971 2456.26982094414 2541.93707004857 2627.604319153 2713.27156825745 2798.93881736189 2884.60606646629 2970.27331557073 3055.94056467516 3141.60781377959 3227.27506288402 3312.94231198845 3398.60956109289 3484.27681019732 3569.94405930175 3655.61130840618 3741.27855751061 3826.94580661504 3912.6130550205 3998.2823097217
     140 0.0067202841   -2970723.8            0   -2970723.2    12.689421 
1428.30001094634 1513.93008151328 1599.59732989982 1685.26457900425 1770.93182810869 1856.59907721312 1942.26632631755 2027.93357542198 2113.60082452641 2199.26807363084 2284.93532273527 2370.6025718397 2456.26982094414 2541.93707004857 2627.604319153 2713.27156825745 2798.93881736189 2884.6060664663 2970.27331557073 3055.94056467516 3141.60781377959 3227.27506288403 3312.94231198845 3398.6095610929 3484.27681019732 3569.94405930175 3655.61130840618 3741.27855751061 3826.94580661504 3912.61305500158 3998.28230971909
     141  0.006816426   -2970723.8            0   -2970723.2    12.828718 
1428.30043734526 1513.93008153254 1599.59732989982 1685.26457900425 1770.93182810868 1856.59907721312 1942.26632631755 2027.93357542198 2113.60082452641 2199.26807363084 2284.93532273527 2370.6025718397 2456.26982094414 2541.93707004857 2627.604319153 2713.27156825745 2798.93881736189 2884.60606646629 2970.27331557073 3055.94056467516 3141.60781377959 3227.27506288402 3312.94231198846 3398.6095610929 3484.27681019732 3569.94405930175 3655.61130840618 3741.27855751061 3826.94580661504 3912.61305498232 3998.28230971679
     142 0.0069115888   -2970723.8            0   -2970723.2     12.96791 
1428.30086344784 1513.93008155214 1599.59732989982 1685.26457900425 1770.93182810868 1856.59907721312 1942.26632631755 2027.93357542198 2113.60082452641 2199.26807363084 2284.93532273527 2370.6025718397 2456.26982094414 2541.93707004857 2627.604319153 2713.27156825745 2798.93881736189 2884.6060664663 2970.27331557073 3055.94056467516 3141.60781377959 3227.27506288403 3312.94231198845 3398.60956109289 3484.27681019732 3569.94405930175 3655.61130840618 3741.27855751061 3826.94580661504 3912.61305496272 3998.28230971481
     143 0.0070057935   -2970723.8            0   -2970723.2    13.106997 
1428.30128925089 1513.93008157208 1599.59732989982 1685.26457900425 1770.93182810868 1856.59907721311 1942.26632631755 2027.93357542198 2113.60082452641 2199.26807363084 2284.93532273527 2370.6025718397 2456.26982094414 2541.93707004857 2627.604319153 2713.27156825745 2798.93881736189 2884.6060664663 2970.27331557073 3055.94056467516 3141.60781377959 3227.27506288402 3312.94231198845 3398.60956109289 3484.27681019732 3569.94405930175 3655.61130840618 3741.27855751061 3826.94580661504 3912.61305494278 3998.28230971315
     144 0.0070990636   -2970723.8            0   -2970723.2    13.245979 
1428.30171475126 1513.93008159238 1599.59732989982 1685.26457900425 1770.93182810868 1856.59907721312 1942.26632631755 2027.93357542198 2113.60082452641 2199.26807363085 2284.93532273527 2370.6025718397 2456.26982094414 2541.93707004857 2627.604319153 2713.27156825745 2798.93881736189 2884.60606646629 2970.27331557073 3055.94056467516 3141.6078137796 3227.27506288402 3312.94231198846 3398.60956109289 3484.27681019732 3569.94405930175 3655.61130840618 3741.27855751062 3826.94580661504 3912.61305492249 3998.28230971182
     145 0.0071914253   -2970723.8            0   -2970723.1    13.384857 
1428.30213994578 1513.93008161302 1599.59732989982 1685.26457900425 1770.93182810868 1856.59907721312 1942.26632631755 2027.93357542198 2113.60082452641 2199.26807363084 2284.93532273527 2370.60257183971 2456.26982094414 2541.93707004857 2627.604319153 2713.27156825745 2798.93881736189 2884.6060664663 2970.27331557073 3055.94056467516 3141.60781377959 3227.27506288402 3312.94231198845 3398.60956109289 3484.27681019732 3569.94405930175 3655.61130840618 3741.27855751061 3826.94580661504 3912.61305490184 3998.28230971084
     146 0.0072829068   -2970723.8            0   -2970723.1     13.52363 
1428.30256483129 1513.93008163401 1599.59732989982 1685.26457900425 1770.93182810868 1856.59907721311 1942.26632631755 2027.93357542198 2113.60082452641 2199.26807363084 2284.93532273527 2370.60257183971 2456.26982094414 2541.93707004857 2627.604319153 2713.27156825745 2798.93881736189 2884.6060664663 2970.27331557073 3055.94056467516 3141.60781377959 3227.27506288403 3312.94231198845 3398.60956109289 3484.27681019732 3569.94405930175 3655.61130840618 3741.27855751062 3826.94580661504 3912.61305488085 3998.2823097102
     147 0.0073735381   -2970723.8            0   -2970723.1    13.662298 
1428.30298940462 1513.93008165537 1599.59732989982 1685.26457900425 1770.93182810868 1856.59907721312 1942.26632631755 2027.93357542198 2113.60082452641 2199.26807363084 2284.93532273527 2370.60257183971 2456.26982094414 2541.93707004857 2627.604319153 2713.27156825745 2798.93881736189 2884.6060664663 2970.27331557073 3055.94056467516 3141.60781377959 3227.27506288402 3312.94231198846 3398.60956109289 3484.27681019732 3569.94405930175 3655.61130840618 3741.27855751062 3826.94580661504 3912.6130548595 3998.28230970993
     148 0.0074633504   -2970723.8            0   -2970723.1    13.800862 
1428.30341366263 1513.93008167708 1599.59732989982 1685.26457900425 1770.93182810868 1856.59907721311 1942.26632631755 2027.93357542198 2113.60082452641 2199.26807363084 2284.93532273527 2370.60257183971 2456.26982094414 2541.93707004857 2627.604319153 2713.27156825745 2798.93881736189 2884.6060664663 2970.27331557073 3055.94056467516 3141.60781377959 3227.27506288403 3312.94231198845 3398.60956109289 3484.27681019732 3569.94405930175 3655.61130840618 3741.27855751062 3826.94580661504 3912.61305483779 3998.28230971002
     149 0.0075523758   -2970723.8            0   -2970723.1    13.939321 
1428.30383760215 1513.93008169914 1599.59732989982 1685.26457900425 1770.93182810868 1856.59907721312 1942.26632631755 2027.93357542198 2113.60082452641 2199.26807363084 2284.93532273527 2370.6025718397 2456.26982094414 2541.93707004857 2627.604319153 2713.27156825745 2798.93881736189 2884.6060664663 2970.27331557073 3055.94056467516 3141.6078137796 3227.27506288403 3312.94231198846 3398.60956109288 3484.27681019732 3569.94405930175 3655.61130840618 3741.27855751062 3826.94580661504 3912.61305481573 3998.28230971048
     150 0.0076406473   -2970723.8            0   -2970723.1    14.077677 
1428.30426122004 1513.93008172157 1599.59732989982 1685.26457900425 1770.93182810868 1856.59907721312 1942.26632631755 2027.93357542198 2113.60082452641 2199.26807363084 2284.93532273527 2370.60257183971 2456.26982094414 2541.93707004857 2627.604319153 2713.27156825745 2798.93881736189 2884.6060664663 2970.27331557073 3055.94056467516 3141.60781377959 3227.27506288403 3312.94231198846 3398.60956109288 3484.27681019732 3569.94405930175 3655.61130840618 3741.27855751062 3826.94580661504 3912.61305479329 3998.28230971134
     151 0.0077281978   -2970723.8            0     -2970723    14.215929 
Loop time of 7.39612 on 64 procs for 100 steps with 720800 atoms

Performance: 1.168 ns/day, 20.545 hours/ns, 13.521 timesteps/s
99.9% CPU use with 64 MPI tasks x no OpenMP threads

MPI task timing breakdown:
Section |  min time  |  avg time  |  max time  |%varavg| %total
---------------------------------------------------------------
Pair    | 5.6116e-05 | 3.2455     | 6.8602     | 183.4 | 43.88
Neigh   | 0          | 0          | 0          |   0.0 |  0.00
Comm    | 3.6319e-05 | 0.16788    | 3.6858     | 154.1 |  2.27
Output  | 0.018176   | 0.077069   | 0.078156   |   2.7 |  1.04
Modify  | 0.38218    | 3.8825     | 7.3464     | 172.8 | 52.49
Other   |            | 0.02321    |            |       |  0.31

Nlocal:        11262.5 ave       24000 max           0 min
Histogram: 32 2 0 0 0 0 0 0 0 30
Nghost:          10417 ave       22560 max           0 min
Histogram: 32 0 2 0 0 0 0 0 0 30
Neighs:         944988 ave 2.01746e+06 max           0 min
Histogram: 32 2 0 0 0 0 0 0 0 30

Total # of neighbors = 60479200
Ave neighs/atom = 83.90566
Neighbor list builds = 0
Dangerous builds = 0
WARNING: One or more atoms are time integrated more than once (../modify.cpp:281)
Setting up Verlet run ...
  Unit style    : metal
  Current step  : 151
  Time step     : 0.001
1428.30426122004 1513.93008172157 1599.59732989982 1685.26457900425 1770.93182810868 1856.59907721312 1942.26632631755 2027.93357542198 2113.60082452641 2199.26807363084 2284.93532273527 2370.60257183971 2456.26982094414 2541.93707004857 2627.604319153 2713.27156825745 2798.93881736189 2884.6060664663 2970.27331557073 3055.94056467516 3141.60781377959 3227.27506288403 3312.94231198845 3398.60956109288 3484.27681019732 3569.94405930175 3655.61130840618 3741.27855751062 3826.94580661504 3912.61305479329 3998.28230971134
Per MPI rank memory allocation (min/avg/max) = 3.605 | 10.66 | 18.57 Mbytes
Step Temp E_pair E_mol TotEng Press 
     151 0.0077281978   -2970723.8            0     -2970723    14.215929 
1428.30468451315 1513.93008174436 1599.59732989982 1685.26457900425 1770.93182810868 1856.59907721311 1942.26632631755 2027.93357542198 2113.60082452641 2199.26807363084 2284.93532273527 2370.60257183971 2456.26982094414 2541.93707004857 2627.604319153 2713.27156825745 2798.93881736189 2884.6060664663 2970.27331557073 3055.94056467516 3141.60781377959 3227.27506288403 3312.94231198845 3398.60956109288 3484.27681019732 3569.94405930175 3655.61130840618 3741.27855751062 3826.94580661504 3912.6130547705 3998.28230971258
     152 0.0078150604   -2970723.7            0     -2970723    14.354077 
1428.30510747834 1513.93008176752 1599.59732989982 1685.26457900425 1770.93182810869 1856.59907721312 1942.26632631755 2027.93357542198 2113.60082452641 2199.26807363084 2284.93532273527 2370.60257183971 2456.26982094414 2541.93707004857 2627.604319153 2713.27156825745 2798.93881736189 2884.6060664663 2970.27331557073 3055.94056467516 3141.60781377959 3227.27506288402 3312.94231198846 3398.60956109288 3484.27681019732 3569.94405930175 3655.61130840618 3741.27855751062 3826.94580661504 3912.61305474734 3998.28230971424
     153 0.0079012679   -2970723.7            0     -2970723     14.49212 
1428.30553011247 1513.93008179104 1599.59732989982 1685.26457900425 1770.93182810868 1856.59907721312 1942.26632631755 2027.93357542198 2113.60082452641 2199.26807363084 2284.93532273527 2370.60257183971 2456.26982094414 2541.93707004857 2627.604319153 2713.27156825745 2798.93881736189 2884.6060664663 2970.27331557073 3055.94056467516 3141.60781377959 3227.27506288402 3312.94231198846 3398.60956109288 3484.27681019732 3569.94405930175 3655.61130840618 3741.27855751062 3826.94580661505 3912.61305472382 3998.2823097163
     154 0.0079868525   -2970723.7            0     -2970723     14.63006 
1428.30595241239 1513.93008181494 1599.59732989982 1685.26457900425 1770.93182810868 1856.59907721312 1942.26632631755 2027.93357542198 2113.60082452641 2199.26807363084 2284.93532273527 2370.6025718397 2456.26982094414 2541.93707004857 2627.604319153 2713.27156825745 2798.93881736189 2884.6060664663 2970.27331557073 3055.94056467516 3141.60781377959 3227.27506288403 3312.94231198845 3398.60956109288 3484.27681019732 3569.94405930175 3655.61130840618 3741.27855751062 3826.94580661505 3912.61305469993 3998.2823097188
     155 0.0080718455   -2970723.7            0     -2970723    14.767895 
1428.30637437498 1513.9300818392 1599.59732989982 1685.26457900425 1770.93182810868 1856.59907721312 1942.26632631755 2027.93357542198 2113.60082452641 2199.26807363084 2284.93532273527 2370.60257183971 2456.26982094414 2541.93707004857 2627.604319153 2713.27156825745 2798.93881736189 2884.6060664663 2970.27331557073 3055.94056467516 3141.60781377959 3227.27506288402 3312.94231198845 3398.60956109288 3484.27681019732 3569.94405930175 3655.61130840618 3741.27855751062 3826.94580661505 3912.61305467567 3998.28230972173
     156 0.0081562772   -2970723.7            0     -2970723    14.905626 
1428.30679599709 1513.93008186383 1599.59732989982 1685.26457900425 1770.93182810868 1856.59907721312 1942.26632631755 2027.93357542198 2113.60082452641 2199.26807363084 2284.93532273527 2370.60257183971 2456.26982094414 2541.93707004857 2627.604319153 2713.27156825745 2798.93881736189 2884.6060664663 2970.27331557073 3055.94056467516 3141.60781377959 3227.27506288403 3312.94231198845 3398.60956109288 3484.27681019732 3569.94405930175 3655.61130840618 3741.27855751062 3826.94580661505 3912.61305465103 3998.2823097251
     157 0.0082401766   -2970723.7            0   -2970722.9    15.043252 
1428.30721727561 1513.93008188884 1599.59732989982 1685.26457900425 1770.93182810868 1856.59907721312 1942.26632631755 2027.93357542198 2113.60082452641 2199.26807363084 2284.93532273527 2370.60257183971 2456.26982094414 2541.93707004857 2627.604319153 2713.27156825745 2798.93881736189 2884.6060664663 2970.27331557073 3055.94056467516 3141.60781377959 3227.27506288403 3312.94231198846 3398.60956109288 3484.27681019732 3569.94405930175 3655.61130840618 3741.27855751062 3826.94580661504 3912.61305462602 3998.28230972894
     158 0.0083235716   -2970723.7            0   -2970722.9    15.180773 
1428.3076382074 1513.93008191422 1599.59732989982 1685.26457900425 1770.93182810868 1856.59907721312 1942.26632631755 2027.93357542198 2113.60082452641 2199.26807363084 2284.93532273527 2370.60257183971 2456.26982094414 2541.93707004857 2627.604319153 2713.27156825745 2798.93881736189 2884.60606646629 2970.27331557073 3055.94056467516 3141.60781377959 3227.27506288402 3312.94231198846 3398.60956109288 3484.27681019732 3569.94405930175 3655.61130840618 3741.27855751062 3826.94580661504 3912.61305460064 3998.28230973324
     159 0.0084064884   -2970723.7            0   -2970722.9    15.318188 
1428.30805878935 1513.93008193998 1599.59732989982 1685.26457900425 1770.93182810868 1856.59907721312 1942.26632631754 2027.93357542198 2113.60082452641 2199.26807363084 2284.93532273527 2370.60257183971 2456.26982094414 2541.93707004857 2627.604319153 2713.27156825745 2798.93881736189 2884.60606646629 2970.27331557073 3055.94056467516 3141.60781377959 3227.27506288403 3312.94231198846 3398.60956109288 3484.27681019732 3569.94405930175 3655.61130840618 3741.27855751062 3826.94580661504 3912.61305457488 3998.28230973803
     160 0.0084889515   -2970723.7            0   -2970722.9    15.455498 
1428.30847901834 1513.93008196612 1599.59732989982 1685.26457900425 1770.93182810869 1856.59907721312 1942.26632631755 2027.93357542198 2113.60082452641 2199.26807363084 2284.93532273527 2370.60257183971 2456.26982094414 2541.93707004857 2627.604319153 2713.27156825745 2798.93881736189 2884.6060664663 2970.27331557073 3055.94056467516 3141.6078137796 3227.27506288403 3312.94231198846 3398.60956109288 3484.27681019732 3569.94405930175 3655.61130840618 3741.27855751062 3826.94580661504 3912.61305454874 3998.2823097433
     161 0.0085709838   -2970723.7            0   -2970722.9      15.5927 
1428.30889889125 1513.93008199263 1599.59732989982 1685.26457900425 1770.93182810869 1856.59907721312 1942.26632631755 2027.93357542198 2113.60082452641 2199.26807363084 2284.93532273527 2370.60257183971 2456.26982094414 2541.93707004857 2627.604319153 2713.27156825745 2798.93881736189 2884.60606646629 2970.27331557073 3055.94056467516 3141.6078137796 3227.27506288403 3312.94231198846 3398.60956109288 3484.27681019732 3569.94405930175 3655.61130840618 3741.27855751062 3826.94580661504 3912.61305452224 3998.28230974909
[...]
     487   0.02526581   -2970722.2            0   -2970719.8    49.086764 
1428.41107023278 1513.93010556141 1599.59732989982 1685.26457900425 1770.93182810869 1856.59907721312 1942.26632631755 2027.93357542197 2113.60082452641 2199.26807363085 2284.93532273527 2370.6025718397 2456.26982094414 2541.93707004857 2627.604319153 2713.27156825745 2798.93881736189 2884.60606646629 2970.27331557073 3055.94056467516 3141.60781377959 3227.27506288403 3312.94231198845 3398.60956109288 3484.27681019732 3569.94405930175 3655.61130840618 3741.27855751062 3826.94580661505 3912.61303095345 3998.28232301443
     488  0.025281983   -2970722.2            0   -2970719.8    49.142172 
1428.41123866811 1513.93010566609 1599.59732989982 1685.26457900425 1770.93182810869 1856.59907721312 1942.26632631755 2027.93357542198 2113.60082452641 2199.26807363084 2284.93532273527 2370.6025718397 2456.26982094414 2541.93707004857 2627.604319153 2713.27156825745 2798.93881736189 2884.60606646629 2970.27331557073 3055.94056467516 3141.60781377959 3227.27506288403 3312.94231198846 3398.60956109288 3484.27681019732 3569.94405930175 3655.61130840618 3741.27855751062 3826.94580661505 3912.61303084877 3998.28232307352
     489  0.025297921   -2970722.2            0   -2970719.8    49.197235 
1428.41140605254 1513.93010577078 1599.59732989982 1685.26457900425 1770.93182810869 1856.59907721312 1942.26632631755 2027.93357542198 2113.60082452641 2199.26807363084 2284.93532273527 2370.6025718397 2456.26982094414 2541.93707004857 2627.604319153 2713.27156825745 2798.93881736189 2884.60606646629 2970.27331557073 3055.94056467516 3141.60781377959 3227.27506288403 3312.94231198846 3398.60956109289 3484.27681019732 3569.94405930175 3655.61130840618 3741.27855751062 3826.94580661505 3912.61303074409 3998.2823231329
     490  0.025313621   -2970722.2            0   -2970719.8    49.251951 
1428.41157238531 1513.93010587549 1599.59732989982 1685.26457900425 1770.93182810868 1856.59907721312 1942.26632631755 2027.93357542198 2113.60082452641 2199.26807363084 2284.93532273527 2370.6025718397 2456.26982094414 2541.93707004857 2627.604319153 2713.27156825745 2798.93881736189 2884.60606646629 2970.27331557073 3055.94056467516 3141.60781377959 3227.27506288403 3312.94231198846 3398.60956109289 3484.27681019732 3569.94405930175 3655.61130840618 3741.27855751062 3826.94580661505 3912.61303063937 3998.28232319256
     491  0.025329078   -2970722.2            0   -2970719.8    49.306321 
1428.41173766568 1513.93010598022 1599.59732989982 1685.26457900425 1770.93182810869 1856.59907721312 1942.26632631755 2027.93357542198 2113.60082452641 2199.26807363085 2284.93532273527 2370.60257183971 2456.26982094414 2541.93707004857 2627.604319153 2713.27156825745 2798.93881736189 2884.60606646629 2970.27331557073 3055.94056467516 3141.60781377959 3227.27506288403 3312.94231198846 3398.60956109289 3484.27681019732 3569.94405930175 3655.61130840618 3741.27855751062 3826.94580661505 3912.61303053465 3998.28232325247
     492   0.02534429   -2970722.2            0   -2970719.8    49.360346 
1428.41190189289 1513.93010608496 1599.59732989982 1685.26457900425 1770.93182810869 1856.59907721312 1942.26632631755 2027.93357542197 2113.60082452641 2199.26807363085 2284.93532273527 2370.60257183971 2456.26982094414 2541.93707004857 2627.604319153 2713.27156825745 2798.93881736189 2884.6060664663 2970.27331557073 3055.94056467516 3141.60781377959 3227.27506288403 3312.94231198846 3398.60956109289 3484.27681019732 3569.94405930175 3655.61130840618 3741.27855751062 3826.94580661505 3912.61303042991 3998.28232331264
     493  0.025359253   -2970722.2            0   -2970719.8    49.414023 
1428.41206506621 1513.9301061897 1599.59732989982 1685.26457900425 1770.93182810868 1856.59907721312 1942.26632631755 2027.93357542198 2113.60082452641 2199.26807363085 2284.93532273527 2370.60257183971 2456.26982094414 2541.93707004857 2627.604319153 2713.27156825745 2798.93881736189 2884.6060664663 2970.27331557073 3055.94056467516 3141.60781377959 3227.27506288403 3312.94231198846 3398.60956109289 3484.27681019732 3569.94405930175 3655.61130840618 3741.27855751062 3826.94580661505 3912.61303032517 3998.28232337305
     494  0.025373965   -2970722.2            0   -2970719.8    49.467353 
1428.41222718492 1513.93010629444 1599.59732989982 1685.26457900426 1770.93182810869 1856.59907721312 1942.26632631755 2027.93357542198 2113.60082452641 2199.26807363084 2284.93532273527 2370.60257183971 2456.26982094414 2541.93707004857 2627.604319153 2713.27156825745 2798.93881736189 2884.6060664663 2970.27331557073 3055.94056467516 3141.60781377959 3227.27506288402 3312.94231198846 3398.60956109289 3484.27681019732 3569.94405930175 3655.61130840618 3741.27855751062 3826.94580661505 3912.61303022042 3998.28232343367
     495  0.025388424   -2970722.1            0   -2970719.8    49.520336 
1428.41238824829 1513.93010639919 1599.59732989982 1685.26457900425 1770.93182810868 1856.59907721312 1942.26632631755 2027.93357542198 2113.60082452641 2199.26807363085 2284.93532273527 2370.60257183971 2456.26982094414 2541.93707004857 2627.604319153 2713.27156825745 2798.93881736189 2884.6060664663 2970.27331557073 3055.94056467516 3141.60781377959 3227.27506288402 3312.94231198846 3398.60956109289 3484.27681019732 3569.94405930175 3655.61130840618 3741.27855751062 3826.94580661505 3912.61303011568 3998.28232349451
     496   0.02540263   -2970722.1            0   -2970719.8    49.572972 
1428.41254825563 1513.93010650393 1599.59732989982 1685.26457900425 1770.93182810868 1856.59907721311 1942.26632631755 2027.93357542198 2113.60082452642 2199.26807363085 2284.93532273527 2370.60257183971 2456.26982094414 2541.93707004857 2627.604319153 2713.27156825745 2798.93881736189 2884.6060664663 2970.27331557073 3055.94056467516 3141.60781377959 3227.27506288402 3312.94231198846 3398.60956109289 3484.27681019732 3569.94405930175 3655.61130840618 3741.27855751062 3826.94580661504 3912.61303001094 3998.28232355554
     497  0.025416582   -2970722.1            0   -2970719.8    49.625259 
1428.41270720623 1513.93010660866 1599.59732989982 1685.26457900425 1770.93182810869 1856.59907721312 1942.26632631755 2027.93357542198 2113.60082452642 2199.26807363084 2284.93532273527 2370.60257183971 2456.26982094414 2541.93707004857 2627.604319153 2713.27156825745 2798.93881736189 2884.6060664663 2970.27331557073 3055.94056467516 3141.60781377959 3227.27506288402 3312.94231198846 3398.60956109289 3484.27681019732 3569.94405930175 3655.61130840618 3741.27855751062 3826.94580661504 3912.6130299062 3998.28232361675
     498  0.025430281   -2970722.1            0   -2970719.8    49.677198 
1428.41286509941 1513.93010671339 1599.59732989982 1685.26457900425 1770.93182810868 1856.59907721312 1942.26632631755 2027.93357542198 2113.60082452641 2199.26807363084 2284.93532273528 2370.60257183971 2456.26982094414 2541.93707004857 2627.604319153 2713.27156825745 2798.93881736189 2884.6060664663 2970.27331557073 3055.94056467516 3141.60781377959 3227.27506288402 3312.94231198846 3398.60956109289 3484.27681019732 3569.94405930175 3655.61130840618 3741.27855751061 3826.94580661504 3912.61302980147 3998.28232367812
     499  0.025443727   -2970722.1            0   -2970719.8    49.728788 
1428.41302193449 1513.9301068181 1599.59732989982 1685.26457900425 1770.93182810868 1856.59907721311 1942.26632631755 2027.93357542198 2113.60082452641 2199.26807363084 2284.93532273528 2370.60257183971 2456.26982094414 2541.93707004857 2627.604319153 2713.27156825745 2798.93881736189 2884.6060664663 2970.27331557073 3055.94056467515 3141.60781377959 3227.27506288402 3312.94231198846 3398.60956109289 3484.27681019732 3569.94405930175 3655.61130840618 3741.27855751061 3826.94580661504 3912.61302969676 3998.28232373964
     500  0.025456922   -2970722.1            0   -2970719.8    49.780029 
1428.4131777108 1513.93010692279 1599.59732989982 1685.26457900425 1770.93182810868 1856.59907721312 1942.26632631755 2027.93357542198 2113.60082452641 2199.26807363084 2284.93532273528 2370.60257183971 2456.26982094414 2541.93707004857 2627.604319153 2713.27156825745 2798.93881736189 2884.6060664663 2970.27331557073 3055.94056467515 3141.60781377959 3227.27506288402 3312.94231198846 3398.60956109289 3484.27681019732 3569.94405930175 3655.61130840618 3741.27855751061 3826.94580661504 3912.61302959207 3998.2823238013
     501  0.025469868   -2970722.1            0   -2970719.8     49.83092 
1428.4133324277 1513.93010702747 1599.59732989982 1685.26457900425 1770.93182810869 1856.59907721312 1942.26632631755 2027.93357542198 2113.60082452641 2199.26807363084 2284.93532273528 2370.60257183971 2456.26982094414 2541.93707004857 2627.604319153 2713.27156825745 2798.93881736189 2884.6060664663 2970.27331557073 3055.94056467515 3141.60781377959 3227.27506288402 3312.94231198846 3398.60956109289 3484.27681019732 3569.94405930175 3655.61130840618 3741.27855751061 3826.94580661504 3912.6130294874 3998.28232386307
     502  0.025482568   -2970722.1            0   -2970719.8    49.881463 
1428.41348608452 1513.93010713211 1599.59732989982 1685.26457900425 1770.93182810868 1856.59907721312 1942.26632631755 2027.93357542198 2113.60082452641 2199.26807363084 2284.93532273528 2370.60257183971 2456.26982094414 2541.93707004857 2627.604319153 2713.27156825745 2798.93881736189 2884.6060664663 2970.27331557073 3055.94056467515 3141.6078137796 3227.27506288402 3312.94231198846 3398.60956109289 3484.27681019732 3569.94405930175 3655.61130840618 3741.27855751061 3826.94580661504 3912.61302938275 3998.28232392496
     503  0.025495025   -2970722.1            0   -2970719.8    49.931655 
1428.41363868063 1513.93010723674 1599.59732989982 1685.26457900425 1770.93182810868 1856.59907721311 1942.26632631754 2027.93357542198 2113.60082452641 2199.26807363084 2284.93532273527 2370.60257183971 2456.26982094414 2541.93707004857 2627.604319153 2713.27156825745 2798.93881736189 2884.6060664663 2970.27331557073 3055.94056467516 3141.60781377959 3227.27506288402 3312.94231198846 3398.60956109289 3484.27681019732 3569.94405930175 3655.61130840618 3741.27855751061 3826.94580661504 3912.61302927813 3998.28232398693
     504  0.025507243   -2970722.1            0   -2970719.8    49.981499 
1428.41379021541 1513.93010734132 1599.59732989982 1685.26457900425 1770.93182810869 1856.59907721312 1942.26632631754 2027.93357542198 2113.60082452641 2199.26807363084 2284.93532273527 2370.6025718397 2456.26982094414 2541.93707004857 2627.604319153 2713.27156825745 2798.93881736189 2884.6060664663 2970.27331557073 3055.94056467516 3141.60781377959 3227.27506288402 3312.94231198846 3398.60956109289 3484.27681019732 3569.94405930175 3655.61130840618 3741.27855751061 3826.94580661504 3912.61302917354 3998.28232404897
     505  0.025519225   -2970722.1            0   -2970719.8    50.030993 
1428.41394068823 1513.93010744588 1599.59732989982 1685.26457900425 1770.93182810868 1856.59907721312 1942.26632631755 2027.93357542198 2113.60082452641 2199.26807363084 2284.93532273527 2370.6025718397 2456.26982094414 2541.93707004857 2627.604319153 2713.27156825745 2798.93881736189 2884.6060664663 2970.27331557073 3055.94056467516 3141.60781377959 3227.27506288402 3312.94231198845 3398.60956109289 3484.27681019732 3569.94405930175 3655.61130840618 3741.27855751061 3826.94580661504 3912.61302906898 3998.28232411108
     506  0.025530978   -2970722.1            0   -2970719.8    50.080138 
1428.41409009849 1513.93010755039 1599.59732989982 1685.26457900425 1770.93182810868 1856.59907721312 1942.26632631755 2027.93357542198 2113.60082452641 2199.26807363084 2284.93532273527 2370.60257183971 2456.26982094414 2541.93707004857 2627.604319153 2713.27156825745 2798.93881736189 2884.6060664663 2970.27331557073 3055.94056467516 3141.60781377959 3227.27506288402 3312.94231198845 3398.60956109289 3484.27681019732 3569.94405930176 3655.61130840618 3741.27855751061 3826.94580661504 3912.61302896448 3998.28232417323
     507  0.025542506   -2970722.1            0   -2970719.8    50.128934 
1428.41423844558 1513.93010765486 1599.59732989982 1685.26457900425 1770.93182810868 1856.59907721312 1942.26632631755 2027.93357542198 2113.60082452641 2199.26807363084 2284.93532273527 2370.6025718397 2456.26982094414 2541.93707004857 2627.604319153 2713.27156825744 2798.93881736189 2884.6060664663 2970.27331557073 3055.94056467516 3141.60781377959 3227.27506288402 3312.94231198845 3398.60956109289 3484.27681019732 3569.94405930175 3655.61130840618 3741.27855751061 3826.94580661504 3912.61302886 3998.28232423542
     508  0.025553813   -2970722.1            0   -2970719.8    50.177381 
1428.41438572893 1513.93010775929 1599.59732989982 1685.26457900425 1770.93182810868 1856.59907721312 1942.26632631755 2027.93357542198 2113.60082452641 2199.26807363084 2284.93532273527 2370.60257183971 2456.26982094414 2541.93707004857 2627.604319153 2713.27156825745 2798.93881736189 2884.6060664663 2970.27331557073 3055.94056467516 3141.6078137796 3227.27506288402 3312.94231198845 3398.60956109289 3484.27681019732 3569.94405930175 3655.61130840618 3741.27855751061 3826.94580661504 3912.61302875557 3998.28232429762
     509  0.025564907   -2970722.1            0   -2970719.8    50.225478 
1428.41453194794 1513.93010786367 1599.59732989982 1685.26457900425 1770.93182810869 1856.59907721311 1942.26632631755 2027.93357542198 2113.60082452641 2199.26807363084 2284.93532273527 2370.60257183971 2456.26982094414 2541.93707004857 2627.604319153 2713.27156825745 2798.93881736189 2884.6060664663 2970.27331557072 3055.94056467516 3141.60781377959 3227.27506288402 3312.94231198845 3398.60956109289 3484.27681019732 3569.94405930175 3655.61130840618 3741.27855751061 3826.94580661504 3912.6130286512 3998.28232435983
     510  0.025575793   -2970722.1            0   -2970719.8    50.273227 
1428.41467710205 1513.93010796799 1599.59732989982 1685.26457900425 1770.93182810868 1856.59907721312 1942.26632631755 2027.93357542198 2113.60082452641 2199.26807363084 2284.93532273527 2370.60257183971 2456.26982094414 2541.93707004857 2627.604319153 2713.27156825745 2798.93881736189 2884.6060664663 2970.27331557073 3055.94056467516 3141.60781377959 3227.27506288402 3312.94231198845 3398.60956109289 3484.27681019732 3569.94405930175 3655.61130840618 3741.27855751061 3826.94580661505 3912.61302854687 3998.28232442204
     511  0.025586477   -2970722.1            0   -2970719.7    50.320625 
1428.4148211907 1513.93010807225 1599.59732989982 1685.26457900425 1770.93182810868 1856.59907721312 1942.26632631755 2027.93357542198 2113.60082452641 2199.26807363084 2284.93532273527 2370.60257183971 2456.26982094414 2541.93707004857 2627.604319153 2713.27156825745 2798.93881736189 2884.6060664663 2970.27331557073 3055.94056467516 3141.60781377959 3227.27506288402 3312.94231198845 3398.60956109289 3484.27681019732 3569.94405930175 3655.61130840618 3741.27855751061 3826.94580661505 3912.61302844261 3998.28232448421
     512  0.025596966   -2970722.1            0   -2970719.7    50.367674 
1428.41496421335 1513.93010817646 1599.59732989982 1685.26457900425 1770.93182810868 1856.59907721312 1942.26632631755 2027.93357542198 2113.60082452641 2199.26807363084 2284.93532273527 2370.60257183971 2456.26982094414 2541.93707004857 2627.604319153 2713.27156825745 2798.93881736189 2884.6060664663 2970.27331557073 3055.94056467516 3141.60781377959 3227.27506288402 3312.94231198845 3398.60956109289 3484.27681019732 3569.94405930175 3655.61130840618 3741.27855751061 3826.94580661505 3912.61302833841 3998.28232454636
     513  0.025607265   -2970722.1            0   -2970719.7    50.414372 
1428.41510616944 1513.9301082806 1599.59732989982 1685.26457900425 1770.93182810868 1856.59907721312 1942.26632631755 2027.93357542198 2113.60082452641 2199.26807363084 2284.93532273527 2370.60257183971 2456.26982094414 2541.93707004857 2627.604319153 2713.27156825745 2798.93881736189 2884.6060664663 2970.27331557073 3055.94056467516 3141.60781377959 3227.27506288402 3312.94231198845 3398.60956109289 3484.27681019732 3569.94405930175 3655.61130840618 3741.27855751061 3826.94580661505 3912.61302823427 3998.28232460845
     514  0.025617381   -2970722.1            0   -2970719.7    50.460722 
1428.41524705845 1513.93010838467 1599.59732989982 1685.26457900425 1770.93182810869 1856.59907721312 1942.26632631755 2027.93357542198 2113.60082452641 2199.26807363084 2284.93532273527 2370.60257183971 2456.26982094414 2541.93707004857 2627.604319153 2713.27156825745 2798.93881736189 2884.6060664663 2970.27331557073 3055.94056467516 3141.60781377959 3227.27506288402 3312.94231198845 3398.6095610929 3484.27681019732 3569.94405930175 3655.61130840618 3741.27855751061 3826.94580661504 3912.61302813019 3998.28232467049
     515  0.025627321   -2970722.1            0   -2970719.7    50.506721 
1428.41538687986 1513.93010848867 1599.59732989982 1685.26457900425 1770.93182810868 1856.59907721312 1942.26632631755 2027.93357542198 2113.60082452641 2199.26807363084 2284.93532273527 2370.60257183971 2456.26982094414 2541.93707004857 2627.604319153 2713.27156825745 2798.93881736189 2884.6060664663 2970.27331557073 3055.94056467516 3141.60781377959 3227.27506288402 3312.94231198846 3398.6095610929 3484.27681019731 3569.94405930175 3655.61130840618 3741.27855751061 3826.94580661504 3912.61302802619 3998.28232473246
     516   0.02563709   -2970722.1            0   -2970719.7     50.55237 
1428.41552563315 1513.9301085926 1599.59732989982 1685.26457900425 1770.93182810869 1856.59907721311 1942.26632631755 2027.93357542198 2113.60082452641 2199.26807363084 2284.93532273527 2370.60257183971 2456.26982094414 2541.93707004857 2627.604319153 2713.27156825745 2798.93881736189 2884.6060664663 2970.27331557073 3055.94056467516 3141.60781377959 3227.27506288402 3312.94231198845 3398.60956109289 3484.27681019731 3569.94405930175 3655.61130840618 3741.27855751061 3826.94580661504 3912.61302792227 3998.28232479433
     517  0.025646696   -2970722.1            0   -2970719.7     50.59767 
1428.41566331784 1513.93010869645 1599.59732989982 1685.26457900425 1770.93182810868 1856.59907721311 1942.26632631755 2027.93357542198 2113.60082452641 2199.26807363084 2284.93532273527 2370.60257183971 2456.26982094414 2541.93707004857 2627.604319153 2713.27156825745 2798.93881736189 2884.6060664663 2970.27331557073 3055.94056467516 3141.60781377959 3227.27506288402 3312.94231198845 3398.60956109289 3484.27681019731 3569.94405930175 3655.61130840618 3741.27855751061 3826.94580661504 3912.61302781842 3998.28232485613
     518  0.025656143   -2970722.1            0   -2970719.7    50.642619 
1428.41579993342 1513.93010880021 1599.59732989982 1685.26457900425 1770.93182810868 1856.59907721311 1942.26632631755 2027.93357542198 2113.60082452641 2199.26807363084 2284.93532273527 2370.6025718397 2456.26982094414 2541.93707004857 2627.604319153 2713.27156825745 2798.93881736189 2884.6060664663 2970.27331557072 3055.94056467516 3141.60781377959 3227.27506288402 3312.94231198846 3398.60956109289 3484.27681019732 3569.94405930175 3655.61130840618 3741.27855751061 3826.94580661504 3912.61302771466 3998.28232491782
     519  0.025665437   -2970722.1            0   -2970719.7    50.687218 
1428.41593547942 1513.93010890389 1599.59732989982 1685.26457900425 1770.93182810868 1856.59907721312 1942.26632631755 2027.93357542198 2113.60082452641 2199.26807363084 2284.93532273528 2370.6025718397 2456.26982094414 2541.93707004857 2627.604319153 2713.27156825745 2798.93881736189 2884.6060664663 2970.27331557073 3055.94056467516 3141.60781377959 3227.27506288402 3312.94231198846 3398.60956109289 3484.27681019732 3569.94405930175 3655.61130840618 3741.27855751061 3826.94580661504 3912.61302761098 3998.28232497939
     520  0.025674584   -2970722.1            0   -2970719.7    50.731468 
slurmstepd: error: *** JOB 6989912 ON r231n01 CANCELLED AT 2022-06-17T07:34:44 ***
